TITLE = "data/coba_fd_opr_baru457.dat"
VARIABLES = "x","y","z","Wavefield","Velocity"
ZONE T = "Frame 457", I = 100, J = 100, K = 1
10.00000,10.00000,10.00000,0.24768,2000.00000
10.00000,30.00000,10.00000,0.10715,2000.00000
10.00000,50.00000,10.00000,-0.18958,2000.00000
10.00000,70.00000,10.00000,-0.19411,2000.00000
10.00000,90.00000,10.00000,0.06473,2000.00000
10.00000,110.00000,10.00000,0.20946,2000.00000
10.00000,130.00000,10.00000,0.09458,2000.00000
10.00000,150.00000,10.00000,-0.09808,2000.00000
10.00000,170.00000,10.00000,-0.17017,2000.00000
10.00000,190.00000,10.00000,-0.07816,2000.00000
10.00000,210.00000,10.00000,0.07787,2000.00000
10.00000,230.00000,10.00000,0.14714,2000.00000
10.00000,250.00000,10.00000,0.08506,2000.00000
10.00000,270.00000,10.00000,-0.02088,2000.00000
10.00000,290.00000,10.00000,-0.08606,2000.00000
10.00000,310.00000,10.00000,-0.08677,2000.00000
10.00000,330.00000,10.00000,-0.03672,2000.00000
10.00000,350.00000,10.00000,0.02147,2000.00000
10.00000,370.00000,10.00000,0.05661,2000.00000
10.00000,390.00000,10.00000,0.06801,2000.00000
10.00000,410.00000,10.00000,0.05792,2000.00000
10.00000,430.00000,10.00000,0.03498,2000.00000
10.00000,450.00000,10.00000,0.00933,2000.00000
10.00000,470.00000,10.00000,-0.01798,2000.00000
10.00000,490.00000,10.00000,-0.04094,2000.00000
10.00000,510.00000,10.00000,-0.05671,2000.00000
10.00000,530.00000,10.00000,-0.06482,2000.00000
10.00000,550.00000,10.00000,-0.06226,2000.00000
10.00000,570.00000,10.00000,-0.05225,2000.00000
10.00000,590.00000,10.00000,-0.03582,2000.00000
10.00000,610.00000,10.00000,-0.01603,2000.00000
10.00000,630.00000,10.00000,0.00338,2000.00000
10.00000,650.00000,10.00000,0.02146,2000.00000
10.00000,670.00000,10.00000,0.03507,2000.00000
10.00000,690.00000,10.00000,0.04483,2000.00000
10.00000,710.00000,10.00000,0.04973,2000.00000
10.00000,730.00000,10.00000,0.05067,2000.00000
10.00000,750.00000,10.00000,0.04845,2000.00000
10.00000,770.00000,10.00000,0.04347,2000.00000
10.00000,790.00000,10.00000,0.03736,2000.00000
10.00000,810.00000,10.00000,0.02992,2000.00000
10.00000,830.00000,10.00000,0.02280,2000.00000
10.00000,850.00000,10.00000,0.01542,2000.00000
10.00000,870.00000,10.00000,0.00908,2000.00000
10.00000,890.00000,10.00000,0.00310,2000.00000
10.00000,910.00000,10.00000,-0.00164,2000.00000
10.00000,930.00000,10.00000,-0.00577,2000.00000
10.00000,950.00000,10.00000,-0.00871,2000.00000
10.00000,970.00000,10.00000,-0.01098,2000.00000
10.00000,990.00000,10.00000,-0.01217,2000.00000
10.00000,1010.00000,10.00000,-0.01268,2000.00000
10.00000,1030.00000,10.00000,-0.01217,2000.00000
10.00000,1050.00000,10.00000,-0.01098,2000.00000
10.00000,1070.00000,10.00000,-0.00871,2000.00000
10.00000,1090.00000,10.00000,-0.00577,2000.00000
10.00000,1110.00000,10.00000,-0.00164,2000.00000
10.00000,1130.00000,10.00000,0.00310,2000.00000
10.00000,1150.00000,10.00000,0.00908,2000.00000
10.00000,1170.00000,10.00000,0.01542,2000.00000
10.00000,1190.00000,10.00000,0.02280,2000.00000
10.00000,1210.00000,10.00000,0.02992,2000.00000
10.00000,1230.00000,10.00000,0.03736,2000.00000
10.00000,1250.00000,10.00000,0.04347,2000.00000
10.00000,1270.00000,10.00000,0.04844,2000.00000
10.00000,1290.00000,10.00000,0.05065,2000.00000
10.00000,1310.00000,10.00000,0.04968,2000.00000
10.00000,1330.00000,10.00000,0.04470,2000.00000
10.00000,1350.00000,10.00000,0.03476,2000.00000
10.00000,1370.00000,10.00000,0.02078,2000.00000
10.00000,1390.00000,10.00000,0.00196,2000.00000
10.00000,1410.00000,10.00000,-0.01881,2000.00000
10.00000,1430.00000,10.00000,-0.04082,2000.00000
10.00000,1450.00000,10.00000,-0.06047,2000.00000
10.00000,1470.00000,10.00000,-0.07428,2000.00000
10.00000,1490.00000,10.00000,-0.07983,2000.00000
10.00000,1510.00000,10.00000,-0.07123,2000.00000
10.00000,1530.00000,10.00000,-0.04795,2000.00000
10.00000,1550.00000,10.00000,-0.00798,2000.00000
10.00000,1570.00000,10.00000,0.04382,2000.00000
10.00000,1590.00000,10.00000,0.09165,2000.00000
10.00000,1610.00000,10.00000,0.11783,2000.00000
10.00000,1630.00000,10.00000,0.09778,2000.00000
10.00000,1650.00000,10.00000,0.02630,2000.00000
10.00000,1670.00000,10.00000,-0.06666,2000.00000
10.00000,1690.00000,10.00000,-0.13152,2000.00000
10.00000,1710.00000,10.00000,-0.11206,2000.00000
10.00000,1730.00000,10.00000,-0.00624,2000.00000
10.00000,1750.00000,10.00000,0.10408,2000.00000
10.00000,1770.00000,10.00000,0.13072,2000.00000
10.00000,1790.00000,10.00000,0.04933,2000.00000
10.00000,1810.00000,10.00000,-0.06856,2000.00000
10.00000,1830.00000,10.00000,-0.09594,2000.00000
10.00000,1850.00000,10.00000,-0.01790,2000.00000
10.00000,1870.00000,10.00000,0.03613,2000.00000
10.00000,1890.00000,10.00000,0.01362,2000.00000
10.00000,1910.00000,10.00000,0.00448,2000.00000
10.00000,1930.00000,10.00000,0.03532,2000.00000
10.00000,1950.00000,10.00000,0.02305,2000.00000
10.00000,1970.00000,10.00000,-0.04236,2000.00000
10.00000,1990.00000,10.00000,-0.06356,2000.00000
30.00000,10.00000,10.00000,0.10715,2000.00000
30.00000,30.00000,10.00000,0.05333,2000.00000
30.00000,50.00000,10.00000,-0.06284,2000.00000
30.00000,70.00000,10.00000,-0.07534,2000.00000
30.00000,90.00000,10.00000,0.00245,2000.00000
30.00000,110.00000,10.00000,0.06224,2000.00000
30.00000,130.00000,10.00000,0.04851,2000.00000
30.00000,150.00000,10.00000,-0.02468,2000.00000
30.00000,170.00000,10.00000,-0.07122,2000.00000
30.00000,190.00000,10.00000,-0.01332,2000.00000
30.00000,210.00000,10.00000,0.07788,2000.00000
30.00000,230.00000,10.00000,0.07335,2000.00000
30.00000,250.00000,10.00000,-0.01599,2000.00000
30.00000,270.00000,10.00000,-0.08835,2000.00000
30.00000,290.00000,10.00000,-0.08601,2000.00000
30.00000,310.00000,10.00000,-0.00805,2000.00000
30.00000,330.00000,10.00000,0.08873,2000.00000
30.00000,350.00000,10.00000,0.13058,2000.00000
30.00000,370.00000,10.00000,0.10537,2000.00000
30.00000,390.00000,10.00000,0.03967,2000.00000
30.00000,410.00000,10.00000,-0.03388,2000.00000
30.00000,430.00000,10.00000,-0.07905,2000.00000
30.00000,450.00000,10.00000,-0.08921,2000.00000
30.00000,470.00000,10.00000,-0.07366,2000.00000
30.00000,490.00000,10.00000,-0.04185,2000.00000
30.00000,510.00000,10.00000,-0.01166,2000.00000
30.00000,530.00000,10.00000,0.01114,2000.00000
30.00000,550.00000,10.00000,0.02346,2000.00000
30.00000,570.00000,10.00000,0.02368,2000.00000
30.00000,590.00000,10.00000,0.01775,2000.00000
30.00000,610.00000,10.00000,0.00587,2000.00000
30.00000,630.00000,10.00000,-0.00680,2000.00000
30.00000,650.00000,10.00000,-0.01864,2000.00000
30.00000,670.00000,10.00000,-0.02874,2000.00000
30.00000,690.00000,10.00000,-0.03475,2000.00000
30.00000,710.00000,10.00000,-0.03866,2000.00000
30.00000,730.00000,10.00000,-0.03852,2000.00000
30.00000,750.00000,10.00000,-0.03685,2000.00000
30.00000,770.00000,10.00000,-0.03275,2000.00000
30.00000,790.00000,10.00000,-0.02784,2000.00000
30.00000,810.00000,10.00000,-0.02227,2000.00000
30.00000,830.00000,10.00000,-0.01639,2000.00000
30.00000,850.00000,10.00000,-0.01109,2000.00000
30.00000,870.00000,10.00000,-0.00573,2000.00000
30.00000,890.00000,10.00000,-0.00160,2000.00000
30.00000,910.00000,10.00000,0.00254,2000.00000
30.00000,930.00000,10.00000,0.00524,2000.00000
30.00000,950.00000,10.00000,0.00798,2000.00000
30.00000,970.00000,10.00000,0.00926,2000.00000
30.00000,990.00000,10.00000,0.01063,2000.00000
30.00000,1010.00000,10.00000,0.01057,2000.00000
30.00000,1030.00000,10.00000,0.01063,2000.00000
30.00000,1050.00000,10.00000,0.00926,2000.00000
30.00000,1070.00000,10.00000,0.00798,2000.00000
30.00000,1090.00000,10.00000,0.00524,2000.00000
30.00000,1110.00000,10.00000,0.00254,2000.00000
30.00000,1130.00000,10.00000,-0.00160,2000.00000
30.00000,1150.00000,10.00000,-0.00573,2000.00000
30.00000,1170.00000,10.00000,-0.01109,2000.00000
30.00000,1190.00000,10.00000,-0.01639,2000.00000
30.00000,1210.00000,10.00000,-0.02227,2000.00000
30.00000,1230.00000,10.00000,-0.02784,2000.00000
30.00000,1250.00000,10.00000,-0.03276,2000.00000
30.00000,1270.00000,10.00000,-0.03687,2000.00000
30.00000,1290.00000,10.00000,-0.03856,2000.00000
30.00000,1310.00000,10.00000,-0.03878,2000.00000
30.00000,1330.00000,10.00000,-0.03504,2000.00000
30.00000,1350.00000,10.00000,-0.02942,2000.00000
30.00000,1370.00000,10.00000,-0.02013,2000.00000
30.00000,1390.00000,10.00000,-0.00986,2000.00000
30.00000,1410.00000,10.00000,0.00002,2000.00000
30.00000,1430.00000,10.00000,0.00742,2000.00000
30.00000,1450.00000,10.00000,0.00713,2000.00000
30.00000,1470.00000,10.00000,-0.00005,2000.00000
30.00000,1490.00000,10.00000,-0.01722,2000.00000
30.00000,1510.00000,10.00000,-0.03764,2000.00000
30.00000,1530.00000,10.00000,-0.05199,2000.00000
30.00000,1550.00000,10.00000,-0.05112,2000.00000
30.00000,1570.00000,10.00000,-0.02255,2000.00000
30.00000,1590.00000,10.00000,0.02430,2000.00000
30.00000,1610.00000,10.00000,0.07000,2000.00000
30.00000,1630.00000,10.00000,0.08654,2000.00000
30.00000,1650.00000,10.00000,0.04930,2000.00000
30.00000,1670.00000,10.00000,-0.01696,2000.00000
30.00000,1690.00000,10.00000,-0.06218,2000.00000
30.00000,1710.00000,10.00000,-0.04495,2000.00000
30.00000,1730.00000,10.00000,0.03519,2000.00000
30.00000,1750.00000,10.00000,0.09214,2000.00000
30.00000,1770.00000,10.00000,0.04651,2000.00000
30.00000,1790.00000,10.00000,-0.05787,2000.00000
30.00000,1810.00000,10.00000,-0.10955,2000.00000
30.00000,1830.00000,10.00000,-0.03624,2000.00000
30.00000,1850.00000,10.00000,0.10278,2000.00000
30.00000,1870.00000,10.00000,0.12145,2000.00000
30.00000,1890.00000,10.00000,-0.03108,2000.00000
30.00000,1910.00000,10.00000,-0.12814,2000.00000
30.00000,1930.00000,10.00000,-0.02276,2000.00000
30.00000,1950.00000,10.00000,0.08960,2000.00000
30.00000,1970.00000,10.00000,0.02935,2000.00000
30.00000,1990.00000,10.00000,-0.05393,2000.00000
50.00000,10.00000,10.00000,-0.18958,2000.00000
50.00000,30.00000,10.00000,-0.06284,2000.00000
50.00000,50.00000,10.00000,0.15913,2000.00000
50.00000,70.00000,10.00000,0.11538,2000.00000
50.00000,90.00000,10.00000,-0.08571,2000.00000
50.00000,110.00000,10.00000,-0.11475,2000.00000
50.00000,130.00000,10.00000,0.00531,2000.00000
50.00000,150.00000,10.00000,0.04942,2000.00000
50.00000,170.00000,10.00000,0.02267,2000.00000
50.00000,190.00000,10.00000,0.03103,2000.00000
50.00000,210.00000,10.00000,0.03923,2000.00000
50.00000,230.00000,10.00000,0.00715,2000.00000
50.00000,250.00000,10.00000,-0.03675,2000.00000
50.00000,270.00000,10.00000,-0.07731,2000.00000
50.00000,290.00000,10.00000,-0.07160,2000.00000
50.00000,310.00000,10.00000,0.01191,2000.00000
50.00000,330.00000,10.00000,0.10518,2000.00000
50.00000,350.00000,10.00000,0.14684,2000.00000
50.00000,370.00000,10.00000,0.12958,2000.00000
50.00000,390.00000,10.00000,0.05589,2000.00000
50.00000,410.00000,10.00000,-0.02890,2000.00000
50.00000,430.00000,10.00000,-0.08394,2000.00000
50.00000,450.00000,10.00000,-0.10787,2000.00000
50.00000,470.00000,10.00000,-0.09585,2000.00000
50.00000,490.00000,10.00000,-0.06589,2000.00000
50.00000,510.00000,10.00000,-0.03637,2000.00000
50.00000,530.00000,10.00000,-0.00903,2000.00000
50.00000,550.00000,10.00000,0.00429,2000.00000
50.00000,570.00000,10.00000,0.00944,2000.00000
50.00000,590.00000,10.00000,0.00787,2000.00000
50.00000,610.00000,10.00000,0.00017,2000.00000
50.00000,630.00000,10.00000,-0.00596,2000.00000
50.00000,650.00000,10.00000,-0.01441,2000.00000
50.00000,670.00000,10.00000,-0.01900,2000.00000
50.00000,690.00000,10.00000,-0.02275,2000.00000
50.00000,710.00000,10.00000,-0.02429,2000.00000
50.00000,730.00000,10.00000,-0.02331,2000.00000
50.00000,750.00000,10.00000,-0.02242,2000.00000
50.00000,770.00000,10.00000,-0.01877,2000.00000
50.00000,790.00000,10.00000,-0.01661,2000.00000
50.00000,810.00000,10.00000,-0.01228,2000.00000
50.00000,830.00000,10.00000,-0.00980,2000.00000
50.00000,850.00000,10.00000,-0.00601,2000.00000
50.00000,870.00000,10.00000,-0.00379,2000.00000
50.00000,890.00000,10.00000,-0.00100,2000.00000
50.00000,910.00000,10.00000,0.00071,2000.00000
50.00000,930.00000,10.00000,0.00245,2000.00000
50.00000,950.00000,10.00000,0.00358,2000.00000
50.00000,970.00000,10.00000,0.00443,2000.00000
50.00000,990.00000,10.00000,0.00495,2000.00000
50.00000,1010.00000,10.00000,0.00506,2000.00000
50.00000,1030.00000,10.00000,0.00495,2000.00000
50.00000,1050.00000,10.00000,0.00443,2000.00000
50.00000,1070.00000,10.00000,0.00358,2000.00000
50.00000,1090.00000,10.00000,0.00245,2000.00000
50.00000,1110.00000,10.00000,0.00071,2000.00000
50.00000,1130.00000,10.00000,-0.00100,2000.00000
50.00000,1150.00000,10.00000,-0.00379,2000.00000
50.00000,1170.00000,10.00000,-0.00601,2000.00000
50.00000,1190.00000,10.00000,-0.00980,2000.00000
50.00000,1210.00000,10.00000,-0.01229,2000.00000
50.00000,1230.00000,10.00000,-0.01661,2000.00000
50.00000,1250.00000,10.00000,-0.01878,2000.00000
50.00000,1270.00000,10.00000,-0.02246,2000.00000
50.00000,1290.00000,10.00000,-0.02340,2000.00000
50.00000,1310.00000,10.00000,-0.02451,2000.00000
50.00000,1330.00000,10.00000,-0.02328,2000.00000
50.00000,1350.00000,10.00000,-0.02021,2000.00000
50.00000,1370.00000,10.00000,-0.01697,2000.00000
50.00000,1390.00000,10.00000,-0.01109,2000.00000
50.00000,1410.00000,10.00000,-0.00933,2000.00000
50.00000,1430.00000,10.00000,-0.00830,2000.00000
50.00000,1450.00000,10.00000,-0.01547,2000.00000
50.00000,1470.00000,10.00000,-0.02954,2000.00000
50.00000,1490.00000,10.00000,-0.04745,2000.00000
50.00000,1510.00000,10.00000,-0.06808,2000.00000
50.00000,1530.00000,10.00000,-0.07245,2000.00000
50.00000,1550.00000,10.00000,-0.05707,2000.00000
50.00000,1570.00000,10.00000,-0.01427,2000.00000
50.00000,1590.00000,10.00000,0.04794,2000.00000
50.00000,1610.00000,10.00000,0.09206,2000.00000
50.00000,1630.00000,10.00000,0.10041,2000.00000
50.00000,1650.00000,10.00000,0.05753,2000.00000
50.00000,1670.00000,10.00000,-0.01294,2000.00000
50.00000,1690.00000,10.00000,-0.04261,2000.00000
50.00000,1710.00000,10.00000,-0.01829,2000.00000
50.00000,1730.00000,10.00000,0.03317,2000.00000
50.00000,1750.00000,10.00000,0.06108,2000.00000
50.00000,1770.00000,10.00000,0.00442,2000.00000
50.00000,1790.00000,10.00000,-0.07379,2000.00000
50.00000,1810.00000,10.00000,-0.05835,2000.00000
50.00000,1830.00000,10.00000,0.02004,2000.00000
50.00000,1850.00000,10.00000,0.07555,2000.00000
50.00000,1870.00000,10.00000,0.07755,2000.00000
50.00000,1890.00000,10.00000,0.00068,2000.00000
50.00000,1910.00000,10.00000,-0.09685,2000.00000
50.00000,1930.00000,10.00000,-0.07493,2000.00000
50.00000,1950.00000,10.00000,0.03880,2000.00000
50.00000,1970.00000,10.00000,0.07495,2000.00000
50.00000,1990.00000,10.00000,0.02704,2000.00000
70.00000,10.00000,10.00000,-0.19411,2000.00000
70.00000,30.00000,10.00000,-0.07534,2000.00000
70.00000,50.00000,10.00000,0.11538,2000.00000
70.00000,70.00000,10.00000,0.08557,2000.00000
70.00000,90.00000,10.00000,-0.01838,2000.00000
70.00000,110.00000,10.00000,-0.01816,2000.00000
70.00000,130.00000,10.00000,-0.00823,2000.00000
70.00000,150.00000,10.00000,-0.03230,2000.00000
70.00000,170.00000,10.00000,-0.01398,2000.00000
70.00000,190.00000,10.00000,0.01220,2000.00000
70.00000,210.00000,10.00000,0.01844,2000.00000
70.00000,230.00000,10.00000,0.05773,2000.00000
70.00000,250.00000,10.00000,0.06666,2000.00000
70.00000,270.00000,10.00000,-0.01301,2000.00000
70.00000,290.00000,10.00000,-0.07534,2000.00000
70.00000,310.00000,10.00000,-0.06382,2000.00000
70.00000,330.00000,10.00000,-0.00751,2000.00000
70.00000,350.00000,10.00000,0.08345,2000.00000
70.00000,370.00000,10.00000,0.14318,2000.00000
70.00000,390.00000,10.00000,0.12968,2000.00000
70.00000,410.00000,10.00000,0.08155,2000.00000
70.00000,430.00000,10.00000,0.00836,2000.00000
70.00000,450.00000,10.00000,-0.06163,2000.00000
70.00000,470.00000,10.00000,-0.10040,2000.00000
70.00000,490.00000,10.00000,-0.12499,2000.00000
70.00000,510.00000,10.00000,-0.12478,2000.00000
70.00000,530.00000,10.00000,-0.11036,2000.00000
70.00000,550.00000,10.00000,-0.09245,2000.00000
70.00000,570.00000,10.00000,-0.06291,2000.00000
70.00000,590.00000,10.00000,-0.03826,2000.00000
70.00000,610.00000,10.00000,-0.01070,2000.00000
70.00000,630.00000,10.00000,0.01283,2000.00000
70.00000,650.00000,10.00000,0.02975,2000.00000
70.00000,670.00000,10.00000,0.04517,2000.00000
70.00000,690.00000,10.00000,0.05021,2000.00000
70.00000,710.00000,10.00000,0.05487,2000.00000
70.00000,730.00000,10.00000,0.05135,2000.00000
70.00000,750.00000,10.00000,0.04726,2000.00000
70.00000,770.00000,10.00000,0.03968,2000.00000
70.00000,790.00000,10.00000,0.03085,2000.00000
70.00000,810.00000,10.00000,0.02273,2000.00000
70.00000,830.00000,10.00000,0.01276,2000.00000
70.00000,850.00000,10.00000,0.00606,2000.00000
70.00000,870.00000,10.00000,-0.00284,2000.00000
70.00000,890.00000,10.00000,-0.00742,2000.00000
70.00000,910.00000,10.00000,-0.01433,2000.00000
70.00000,930.00000,10.00000,-0.01680,2000.00000
70.00000,950.00000,10.00000,-0.02160,2000.00000
70.00000,970.00000,10.00000,-0.02218,2000.00000
70.00000,990.00000,10.00000,-0.02506,2000.00000
70.00000,1010.00000,10.00000,-0.02391,2000.00000
70.00000,1030.00000,10.00000,-0.02506,2000.00000
70.00000,1050.00000,10.00000,-0.02218,2000.00000
70.00000,1070.00000,10.00000,-0.02160,2000.00000
70.00000,1090.00000,10.00000,-0.01680,2000.00000
70.00000,1110.00000,10.00000,-0.01433,2000.00000
70.00000,1130.00000,10.00000,-0.00742,2000.00000
70.00000,1150.00000,10.00000,-0.00284,2000.00000
70.00000,1170.00000,10.00000,0.00606,2000.00000
70.00000,1190.00000,10.00000,0.01276,2000.00000
70.00000,1210.00000,10.00000,0.02273,2000.00000
70.00000,1230.00000,10.00000,0.03084,2000.00000
70.00000,1250.00000,10.00000,0.03966,2000.00000
70.00000,1270.00000,10.00000,0.04720,2000.00000
70.00000,1290.00000,10.00000,0.05119,2000.00000
70.00000,1310.00000,10.00000,0.05448,2000.00000
70.00000,1330.00000,10.00000,0.04931,2000.00000
70.00000,1350.00000,10.00000,0.04321,2000.00000
70.00000,1370.00000,10.00000,0.02571,2000.00000
70.00000,1390.00000,10.00000,0.00504,2000.00000
70.00000,1410.00000,10.00000,-0.02458,2000.00000
70.00000,1430.00000,10.00000,-0.06085,2000.00000
70.00000,1450.00000,10.00000,-0.09595,2000.00000
70.00000,1470.00000,10.00000,-0.13453,2000.00000
70.00000,1490.00000,10.00000,-0.15403,2000.00000
70.00000,1510.00000,10.00000,-0.15474,2000.00000
70.00000,1530.00000,10.00000,-0.12018,2000.00000
70.00000,1550.00000,10.00000,-0.04263,2000.00000
70.00000,1570.00000,10.00000,0.05014,2000.00000
70.00000,1590.00000,10.00000,0.14582,2000.00000
70.00000,1610.00000,10.00000,0.18994,2000.00000
70.00000,1630.00000,10.00000,0.15446,2000.00000
70.00000,1650.00000,10.00000,0.07026,2000.00000
70.00000,1670.00000,10.00000,-0.03944,2000.00000
70.00000,1690.00000,10.00000,-0.09906,2000.00000
70.00000,1710.00000,10.00000,-0.07618,2000.00000
70.00000,1730.00000,10.00000,-0.03644,2000.00000
70.00000,1750.00000,10.00000,0.01274,2000.00000
70.00000,1770.00000,10.00000,0.06356,2000.00000
70.00000,1790.00000,10.00000,0.07452,2000.00000
70.00000,1810.00000,10.00000,0.07271,2000.00000
70.00000,1830.00000,10.00000,0.02269,2000.00000
70.00000,1850.00000,10.00000,-0.11670,2000.00000
70.00000,1870.00000,10.00000,-0.14455,2000.00000
70.00000,1890.00000,10.00000,0.05356,2000.00000
70.00000,1910.00000,10.00000,0.17678,2000.00000
70.00000,1930.00000,10.00000,0.02514,2000.00000
70.00000,1950.00000,10.00000,-0.12119,2000.00000
70.00000,1970.00000,10.00000,-0.03539,2000.00000
70.00000,1990.00000,10.00000,0.07141,2000.00000
90.00000,10.00000,10.00000,0.06473,2000.00000
90.00000,30.00000,10.00000,0.00245,2000.00000
90.00000,50.00000,10.00000,-0.08571,2000.00000
90.00000,70.00000,10.00000,-0.01838,2000.00000
90.00000,90.00000,10.00000,0.10449,2000.00000
90.00000,110.00000,10.00000,0.04152,2000.00000
90.00000,130.00000,10.00000,-0.09153,2000.00000
90.00000,150.00000,10.00000,-0.02844,2000.00000
90.00000,170.00000,10.00000,0.08690,2000.00000
90.00000,190.00000,10.00000,0.02540,2000.00000
90.00000,210.00000,10.00000,-0.05234,2000.00000
90.00000,230.00000,10.00000,-0.01385,2000.00000
90.00000,250.00000,10.00000,0.01445,2000.00000
90.00000,270.00000,10.00000,0.01773,2000.00000
90.00000,290.00000,10.00000,0.03319,2000.00000
90.00000,310.00000,10.00000,0.01470,2000.00000
90.00000,330.00000,10.00000,0.02505,2000.00000
90.00000,350.00000,10.00000,0.08438,2000.00000
90.00000,370.00000,10.00000,0.09819,2000.00000
90.00000,390.00000,10.00000,0.07963,2000.00000
90.00000,410.00000,10.00000,0.03507,2000.00000
90.00000,430.00000,10.00000,-0.04358,2000.00000
90.00000,450.00000,10.00000,-0.08855,2000.00000
90.00000,470.00000,10.00000,-0.10984,2000.00000
90.00000,490.00000,10.00000,-0.11145,2000.00000
90.00000,510.00000,10.00000,-0.08148,2000.00000
90.00000,530.00000,10.00000,-0.06173,2000.00000
90.00000,550.00000,10.00000,-0.03672,2000.00000
90.00000,570.00000,10.00000,-0.01999,2000.00000
90.00000,590.00000,10.00000,-0.01686,2000.00000
90.00000,610.00000,10.00000,-0.00900,2000.00000
90.00000,630.00000,10.00000,-0.01544,2000.00000
90.00000,650.00000,10.00000,-0.01426,2000.00000
90.00000,670.00000,10.00000,-0.01809,2000.00000
90.00000,690.00000,10.00000,-0.02012,2000.00000
90.00000,710.00000,10.00000,-0.01800,2000.00000
90.00000,730.00000,10.00000,-0.02039,2000.00000
90.00000,750.00000,10.00000,-0.01438,2000.00000
90.00000,770.00000,10.00000,-0.01554,2000.00000
90.00000,790.00000,10.00000,-0.00871,2000.00000
90.00000,810.00000,10.00000,-0.00830,2000.00000
90.00000,830.00000,10.00000,-0.00269,2000.00000
90.00000,850.00000,10.00000,-0.00110,2000.00000
90.00000,870.00000,10.00000,0.00255,2000.00000
90.00000,890.00000,10.00000,0.00472,2000.00000
90.00000,910.00000,10.00000,0.00646,2000.00000
90.00000,930.00000,10.00000,0.00874,2000.00000
90.00000,950.00000,10.00000,0.00898,2000.00000
90.00000,970.00000,10.00000,0.01102,2000.00000
90.00000,990.00000,10.00000,0.01018,2000.00000
90.00000,1010.00000,10.00000,0.01175,2000.00000
90.00000,1030.00000,10.00000,0.01018,2000.00000
90.00000,1050.00000,10.00000,0.01102,2000.00000
90.00000,1070.00000,10.00000,0.00898,2000.00000
90.00000,1090.00000,10.00000,0.00874,2000.00000
90.00000,1110.00000,10.00000,0.00646,2000.00000
90.00000,1130.00000,10.00000,0.00472,2000.00000
90.00000,1150.00000,10.00000,0.00255,2000.00000
90.00000,1170.00000,10.00000,-0.00110,2000.00000
90.00000,1190.00000,10.00000,-0.00269,2000.00000
90.00000,1210.00000,10.00000,-0.00830,2000.00000
90.00000,1230.00000,10.00000,-0.00873,2000.00000
90.00000,1250.00000,10.00000,-0.01558,2000.00000
90.00000,1270.00000,10.00000,-0.01448,2000.00000
90.00000,1290.00000,10.00000,-0.02065,2000.00000
90.00000,1310.00000,10.00000,-0.01863,2000.00000
90.00000,1330.00000,10.00000,-0.02156,2000.00000
90.00000,1350.00000,10.00000,-0.02114,2000.00000
90.00000,1370.00000,10.00000,-0.02032,2000.00000
90.00000,1390.00000,10.00000,-0.02665,2000.00000
90.00000,1410.00000,10.00000,-0.02805,2000.00000
90.00000,1430.00000,10.00000,-0.04627,2000.00000
90.00000,1450.00000,10.00000,-0.06034,2000.00000
90.00000,1470.00000,10.00000,-0.08395,2000.00000
90.00000,1490.00000,10.00000,-0.10463,2000.00000
90.00000,1510.00000,10.00000,-0.10165,2000.00000
90.00000,1530.00000,10.00000,-0.08860,2000.00000
90.00000,1550.00000,10.00000,-0.03343,2000.00000
90.00000,1570.00000,10.00000,0.02911,2000.00000
90.00000,1590.00000,10.00000,0.07621,2000.00000
90.00000,1610.00000,10.00000,0.10722,2000.00000
90.00000,1630.00000,10.00000,0.07710,2000.00000
90.00000,1650.00000,10.00000,0.04280,2000.00000
90.00000,1670.00000,10.00000,0.03326,2000.00000
90.00000,1690.00000,10.00000,0.01519,2000.00000
90.00000,1710.00000,10.00000,0.01768,2000.00000
90.00000,1730.00000,10.00000,-0.01307,2000.00000
90.00000,1750.00000,10.00000,-0.07744,2000.00000
90.00000,1770.00000,10.00000,-0.02801,2000.00000
90.00000,1790.00000,10.00000,0.08555,2000.00000
90.00000,1810.00000,10.00000,0.11030,2000.00000
90.00000,1830.00000,10.00000,0.05139,2000.00000
90.00000,1850.00000,10.00000,-0.08184,2000.00000
90.00000,1870.00000,10.00000,-0.18476,2000.00000
90.00000,1890.00000,10.00000,-0.03082,2000.00000
90.00000,1910.00000,10.00000,0.21466,2000.00000
90.00000,1930.00000,10.00000,0.14041,2000.00000
90.00000,1950.00000,10.00000,-0.11647,2000.00000
90.00000,1970.00000,10.00000,-0.12332,2000.00000
90.00000,1990.00000,10.00000,0.01794,2000.00000
110.00000,10.00000,10.00000,0.20946,2000.00000
110.00000,30.00000,10.00000,0.06224,2000.00000
110.00000,50.00000,10.00000,-0.11475,2000.00000
110.00000,70.00000,10.00000,-0.01816,2000.00000
110.00000,90.00000,10.00000,0.04152,2000.00000
110.00000,110.00000,10.00000,-0.10149,2000.00000
110.00000,130.00000,10.00000,-0.07664,2000.00000
110.00000,150.00000,10.00000,0.16044,2000.00000
110.00000,170.00000,10.00000,0.18813,2000.00000
110.00000,190.00000,10.00000,-0.00483,2000.00000
110.00000,210.00000,10.00000,-0.11917,2000.00000
110.00000,230.00000,10.00000,-0.14625,2000.00000
110.00000,250.00000,10.00000,-0.09159,2000.00000
110.00000,270.00000,10.00000,0.08350,2000.00000
110.00000,290.00000,10.00000,0.17159,2000.00000
110.00000,310.00000,10.00000,0.12179,2000.00000
110.00000,330.00000,10.00000,0.09546,2000.00000
110.00000,350.00000,10.00000,0.05799,2000.00000
110.00000,370.00000,10.00000,0.01374,2000.00000
110.00000,390.00000,10.00000,0.01459,2000.00000
110.00000,410.00000,10.00000,-0.02945,2000.00000
110.00000,430.00000,10.00000,-0.07470,2000.00000
110.00000,450.00000,10.00000,-0.08519,2000.00000
110.00000,470.00000,10.00000,-0.10657,2000.00000
110.00000,490.00000,10.00000,-0.08245,2000.00000
110.00000,510.00000,10.00000,-0.05467,2000.00000
110.00000,530.00000,10.00000,-0.03886,2000.00000
110.00000,550.00000,10.00000,-0.00979,2000.00000
110.00000,570.00000,10.00000,-0.01485,2000.00000
110.00000,590.00000,10.00000,-0.01211,2000.00000
110.00000,610.00000,10.00000,-0.02079,2000.00000
110.00000,630.00000,10.00000,-0.03519,2000.00000
110.00000,650.00000,10.00000,-0.03545,2000.00000
110.00000,670.00000,10.00000,-0.04924,2000.00000
110.00000,690.00000,10.00000,-0.04242,2000.00000
110.00000,710.00000,10.00000,-0.04645,2000.00000
110.00000,730.00000,10.00000,-0.03833,2000.00000
110.00000,750.00000,10.00000,-0.03265,2000.00000
110.00000,770.00000,10.00000,-0.02699,2000.00000
110.00000,790.00000,10.00000,-0.01579,2000.00000
110.00000,810.00000,10.00000,-0.01346,2000.00000
110.00000,830.00000,10.00000,-0.00091,2000.00000
110.00000,850.00000,10.00000,-0.00125,2000.00000
110.00000,870.00000,10.00000,0.01009,2000.00000
110.00000,890.00000,10.00000,0.00805,2000.00000
110.00000,910.00000,10.00000,0.01725,2000.00000
110.00000,930.00000,10.00000,0.01423,2000.00000
110.00000,950.00000,10.00000,0.02134,2000.00000
110.00000,970.00000,10.00000,0.01765,2000.00000
110.00000,990.00000,10.00000,0.02316,2000.00000
110.00000,1010.00000,10.00000,0.01873,2000.00000
110.00000,1030.00000,10.00000,0.02316,2000.00000
110.00000,1050.00000,10.00000,0.01765,2000.00000
110.00000,1070.00000,10.00000,0.02134,2000.00000
110.00000,1090.00000,10.00000,0.01423,2000.00000
110.00000,1110.00000,10.00000,0.01725,2000.00000
110.00000,1130.00000,10.00000,0.00805,2000.00000
110.00000,1150.00000,10.00000,0.01009,2000.00000
110.00000,1170.00000,10.00000,-0.00126,2000.00000
110.00000,1190.00000,10.00000,-0.00091,2000.00000
110.00000,1210.00000,10.00000,-0.01347,2000.00000
110.00000,1230.00000,10.00000,-0.01581,2000.00000
110.00000,1250.00000,10.00000,-0.02706,2000.00000
110.00000,1270.00000,10.00000,-0.03283,2000.00000
110.00000,1290.00000,10.00000,-0.03877,2000.00000
110.00000,1310.00000,10.00000,-0.04747,2000.00000
110.00000,1330.00000,10.00000,-0.04465,2000.00000
110.00000,1350.00000,10.00000,-0.05381,2000.00000
110.00000,1370.00000,10.00000,-0.04418,2000.00000
110.00000,1390.00000,10.00000,-0.05061,2000.00000
110.00000,1410.00000,10.00000,-0.04571,2000.00000
110.00000,1430.00000,10.00000,-0.04831,2000.00000
110.00000,1450.00000,10.00000,-0.06083,2000.00000
110.00000,1470.00000,10.00000,-0.05801,2000.00000
110.00000,1490.00000,10.00000,-0.07437,2000.00000
110.00000,1510.00000,10.00000,-0.05788,2000.00000
110.00000,1530.00000,10.00000,-0.03800,2000.00000
110.00000,1550.00000,10.00000,-0.01627,2000.00000
110.00000,1570.00000,10.00000,0.02376,2000.00000
110.00000,1590.00000,10.00000,0.00861,2000.00000
110.00000,1610.00000,10.00000,-0.00486,2000.00000
110.00000,1630.00000,10.00000,-0.00993,2000.00000
110.00000,1650.00000,10.00000,-0.00687,2000.00000
110.00000,1670.00000,10.00000,0.08917,2000.00000
110.00000,1690.00000,10.00000,0.15806,2000.00000
110.00000,1710.00000,10.00000,0.12671,2000.00000
110.00000,1730.00000,10.00000,0.05721,2000.00000
110.00000,1750.00000,10.00000,-0.08138,2000.00000
110.00000,1770.00000,10.00000,-0.14707,2000.00000
110.00000,1790.00000,10.00000,-0.02594,2000.00000
110.00000,1810.00000,10.00000,0.04270,2000.00000
110.00000,1830.00000,10.00000,0.01789,2000.00000
110.00000,1850.00000,10.00000,0.08077,2000.00000
110.00000,1870.00000,10.00000,0.08574,2000.00000
110.00000,1890.00000,10.00000,-0.06614,2000.00000
110.00000,1910.00000,10.00000,-0.10479,2000.00000
110.00000,1930.00000,10.00000,0.02525,2000.00000
110.00000,1950.00000,10.00000,0.07112,2000.00000
110.00000,1970.00000,10.00000,-0.00081,2000.00000
110.00000,1990.00000,10.00000,-0.03465,2000.00000
130.00000,10.00000,10.00000,0.09458,2000.00000
130.00000,30.00000,10.00000,0.04851,2000.00000
130.00000,50.00000,10.00000,0.00531,2000.00000
130.00000,70.00000,10.00000,-0.00823,2000.00000
130.00000,90.00000,10.00000,-0.09153,2000.00000
130.00000,110.00000,10.00000,-0.07664,2000.00000
130.00000,130.00000,10.00000,0.09927,2000.00000
130.00000,150.00000,10.00000,0.12044,2000.00000
130.00000,170.00000,10.00000,-0.01842,2000.00000
130.00000,190.00000,10.00000,-0.01771,2000.00000
130.00000,210.00000,10.00000,-0.00078,2000.00000
130.00000,230.00000,10.00000,-0.09082,2000.00000
130.00000,250.00000,10.00000,-0.02301,2000.00000
130.00000,270.00000,10.00000,0.12389,2000.00000
130.00000,290.00000,10.00000,0.10086,2000.00000
130.00000,310.00000,10.00000,0.06398,2000.00000
130.00000,330.00000,10.00000,0.04517,2000.00000
130.00000,350.00000,10.00000,-0.01607,2000.00000
130.00000,370.00000,10.00000,0.03038,2000.00000
130.00000,390.00000,10.00000,0.08121,2000.00000