TITLE = "data/coba_fd_opr_baru499.dat"
VARIABLES = "x","y","z","Wavefield","Velocity"
ZONE T = "Frame 499", I = 100, J = 100, K = 1
10.00000,10.00000,10.00000,-0.34336,2000.00000
10.00000,30.00000,10.00000,-0.02918,2000.00000
10.00000,50.00000,10.00000,0.29518,2000.00000
10.00000,70.00000,10.00000,0.07086,2000.00000
10.00000,90.00000,10.00000,-0.18195,2000.00000
10.00000,110.00000,10.00000,-0.08820,2000.00000
10.00000,130.00000,10.00000,0.04274,2000.00000
10.00000,150.00000,10.00000,0.04228,2000.00000
10.00000,170.00000,10.00000,0.01301,2000.00000
10.00000,190.00000,10.00000,0.01104,2000.00000
10.00000,210.00000,10.00000,0.05639,2000.00000
10.00000,230.00000,10.00000,0.03856,2000.00000
10.00000,250.00000,10.00000,-0.09720,2000.00000
10.00000,270.00000,10.00000,-0.12616,2000.00000
10.00000,290.00000,10.00000,0.00003,2000.00000
10.00000,310.00000,10.00000,0.07990,2000.00000
10.00000,330.00000,10.00000,0.07320,2000.00000
10.00000,350.00000,10.00000,0.01824,2000.00000
10.00000,370.00000,10.00000,-0.02219,2000.00000
10.00000,390.00000,10.00000,0.01643,2000.00000
10.00000,410.00000,10.00000,0.03968,2000.00000
10.00000,430.00000,10.00000,0.00676,2000.00000
10.00000,450.00000,10.00000,-0.04382,2000.00000
10.00000,470.00000,10.00000,-0.09364,2000.00000
10.00000,490.00000,10.00000,-0.07923,2000.00000
10.00000,510.00000,10.00000,-0.02524,2000.00000
10.00000,530.00000,10.00000,0.03086,2000.00000
10.00000,550.00000,10.00000,0.07680,2000.00000
10.00000,570.00000,10.00000,0.07876,2000.00000
10.00000,590.00000,10.00000,0.06801,2000.00000
10.00000,610.00000,10.00000,0.04251,2000.00000
10.00000,630.00000,10.00000,0.01921,2000.00000
10.00000,650.00000,10.00000,0.00628,2000.00000
10.00000,670.00000,10.00000,-0.00829,2000.00000
10.00000,690.00000,10.00000,-0.01048,2000.00000
10.00000,710.00000,10.00000,-0.02023,2000.00000
10.00000,730.00000,10.00000,-0.02192,2000.00000
10.00000,750.00000,10.00000,-0.02930,2000.00000
10.00000,770.00000,10.00000,-0.03269,2000.00000
10.00000,790.00000,10.00000,-0.03659,2000.00000
10.00000,810.00000,10.00000,-0.04024,2000.00000
10.00000,830.00000,10.00000,-0.04035,2000.00000
10.00000,850.00000,10.00000,-0.04337,2000.00000
10.00000,870.00000,10.00000,-0.04077,2000.00000
10.00000,890.00000,10.00000,-0.04321,2000.00000
10.00000,910.00000,10.00000,-0.03932,2000.00000
10.00000,930.00000,10.00000,-0.04159,2000.00000
10.00000,950.00000,10.00000,-0.03751,2000.00000
10.00000,970.00000,10.00000,-0.04004,2000.00000
10.00000,990.00000,10.00000,-0.03635,2000.00000
10.00000,1010.00000,10.00000,-0.03942,2000.00000
10.00000,1030.00000,10.00000,-0.03635,2000.00000
10.00000,1050.00000,10.00000,-0.04004,2000.00000
10.00000,1070.00000,10.00000,-0.03751,2000.00000
10.00000,1090.00000,10.00000,-0.04161,2000.00000
10.00000,1110.00000,10.00000,-0.03937,2000.00000
10.00000,1130.00000,10.00000,-0.04332,2000.00000
10.00000,1150.00000,10.00000,-0.04104,2000.00000
10.00000,1170.00000,10.00000,-0.04396,2000.00000
10.00000,1190.00000,10.00000,-0.04156,2000.00000
10.00000,1210.00000,10.00000,-0.04254,2000.00000
10.00000,1230.00000,10.00000,-0.04066,2000.00000
10.00000,1250.00000,10.00000,-0.03925,2000.00000
10.00000,1270.00000,10.00000,-0.03877,2000.00000
10.00000,1290.00000,10.00000,-0.03364,2000.00000
10.00000,1310.00000,10.00000,-0.03158,2000.00000
10.00000,1330.00000,10.00000,-0.01626,2000.00000
10.00000,1350.00000,10.00000,-0.00144,2000.00000
10.00000,1370.00000,10.00000,0.03153,2000.00000
10.00000,1390.00000,10.00000,0.06182,2000.00000
10.00000,1410.00000,10.00000,0.08957,2000.00000
10.00000,1430.00000,10.00000,0.09546,2000.00000
10.00000,1450.00000,10.00000,0.06310,2000.00000
10.00000,1470.00000,10.00000,0.01531,2000.00000
10.00000,1490.00000,10.00000,-0.04399,2000.00000
10.00000,1510.00000,10.00000,-0.05787,2000.00000
10.00000,1530.00000,10.00000,-0.03459,2000.00000
10.00000,1550.00000,10.00000,-0.00160,2000.00000
10.00000,1570.00000,10.00000,0.00916,2000.00000
10.00000,1590.00000,10.00000,-0.04231,2000.00000
10.00000,1610.00000,10.00000,-0.06787,2000.00000
10.00000,1630.00000,10.00000,-0.02487,2000.00000
10.00000,1650.00000,10.00000,0.06327,2000.00000
10.00000,1670.00000,10.00000,0.12664,2000.00000
10.00000,1690.00000,10.00000,0.05100,2000.00000
10.00000,1710.00000,10.00000,-0.05225,2000.00000
10.00000,1730.00000,10.00000,-0.04486,2000.00000
10.00000,1750.00000,10.00000,-0.00236,2000.00000
10.00000,1770.00000,10.00000,-0.00065,2000.00000
10.00000,1790.00000,10.00000,-0.06621,2000.00000
10.00000,1810.00000,10.00000,-0.07639,2000.00000
10.00000,1830.00000,10.00000,0.10138,2000.00000
10.00000,1850.00000,10.00000,0.17313,2000.00000
10.00000,1870.00000,10.00000,-0.04856,2000.00000
10.00000,1890.00000,10.00000,-0.14600,2000.00000
10.00000,1910.00000,10.00000,0.02128,2000.00000
10.00000,1930.00000,10.00000,0.04633,2000.00000
10.00000,1950.00000,10.00000,-0.06936,2000.00000
10.00000,1970.00000,10.00000,0.01057,2000.00000
10.00000,1990.00000,10.00000,0.12984,2000.00000
30.00000,10.00000,10.00000,-0.02918,2000.00000
30.00000,30.00000,10.00000,0.02622,2000.00000
30.00000,50.00000,10.00000,0.01736,2000.00000
30.00000,70.00000,10.00000,-0.05406,2000.00000
30.00000,90.00000,10.00000,-0.02968,2000.00000
30.00000,110.00000,10.00000,0.05219,2000.00000
30.00000,130.00000,10.00000,0.08052,2000.00000
30.00000,150.00000,10.00000,0.01777,2000.00000
30.00000,170.00000,10.00000,-0.10901,2000.00000
30.00000,190.00000,10.00000,-0.10466,2000.00000
30.00000,210.00000,10.00000,0.06848,2000.00000
30.00000,230.00000,10.00000,0.10504,2000.00000
30.00000,250.00000,10.00000,-0.02024,2000.00000
30.00000,270.00000,10.00000,-0.03756,2000.00000
30.00000,290.00000,10.00000,0.03471,2000.00000
30.00000,310.00000,10.00000,0.06252,2000.00000
30.00000,330.00000,10.00000,0.00830,2000.00000
30.00000,350.00000,10.00000,-0.10819,2000.00000
30.00000,370.00000,10.00000,-0.11905,2000.00000
30.00000,390.00000,10.00000,-0.00112,2000.00000
30.00000,410.00000,10.00000,0.09038,2000.00000
30.00000,430.00000,10.00000,0.11100,2000.00000
30.00000,450.00000,10.00000,0.04307,2000.00000
30.00000,470.00000,10.00000,-0.03711,2000.00000
30.00000,490.00000,10.00000,-0.04106,2000.00000
30.00000,510.00000,10.00000,-0.00907,2000.00000
30.00000,530.00000,10.00000,0.04746,2000.00000
30.00000,550.00000,10.00000,0.06957,2000.00000
30.00000,570.00000,10.00000,0.04464,2000.00000
30.00000,590.00000,10.00000,0.00618,2000.00000
30.00000,610.00000,10.00000,-0.04770,2000.00000
30.00000,630.00000,10.00000,-0.07078,2000.00000
30.00000,650.00000,10.00000,-0.08164,2000.00000
30.00000,670.00000,10.00000,-0.06973,2000.00000
30.00000,690.00000,10.00000,-0.04773,2000.00000
30.00000,710.00000,10.00000,-0.02822,2000.00000
30.00000,730.00000,10.00000,-0.00274,2000.00000
30.00000,750.00000,10.00000,0.00828,2000.00000
30.00000,770.00000,10.00000,0.02565,2000.00000
30.00000,790.00000,10.00000,0.02857,2000.00000
30.00000,810.00000,10.00000,0.03792,2000.00000
30.00000,830.00000,10.00000,0.03710,2000.00000
30.00000,850.00000,10.00000,0.04096,2000.00000
30.00000,870.00000,10.00000,0.03927,2000.00000
30.00000,890.00000,10.00000,0.03983,2000.00000
30.00000,910.00000,10.00000,0.03859,2000.00000
30.00000,930.00000,10.00000,0.03749,2000.00000
30.00000,950.00000,10.00000,0.03715,2000.00000
30.00000,970.00000,10.00000,0.03554,2000.00000
30.00000,990.00000,10.00000,0.03615,2000.00000
30.00000,1010.00000,10.00000,0.03481,2000.00000
30.00000,1030.00000,10.00000,0.03615,2000.00000
30.00000,1050.00000,10.00000,0.03554,2000.00000
30.00000,1070.00000,10.00000,0.03713,2000.00000
30.00000,1090.00000,10.00000,0.03745,2000.00000
30.00000,1110.00000,10.00000,0.03848,2000.00000
30.00000,1130.00000,10.00000,0.03958,2000.00000
30.00000,1150.00000,10.00000,0.03868,2000.00000
30.00000,1170.00000,10.00000,0.03970,2000.00000
30.00000,1190.00000,10.00000,0.03456,2000.00000
30.00000,1210.00000,10.00000,0.03315,2000.00000
30.00000,1230.00000,10.00000,0.02027,2000.00000
30.00000,1250.00000,10.00000,0.01250,2000.00000
30.00000,1270.00000,10.00000,-0.01030,2000.00000
30.00000,1290.00000,10.00000,-0.02519,2000.00000
30.00000,1310.00000,10.00000,-0.04917,2000.00000
30.00000,1330.00000,10.00000,-0.05713,2000.00000
30.00000,1350.00000,10.00000,-0.05462,2000.00000
30.00000,1370.00000,10.00000,-0.03238,2000.00000
30.00000,1390.00000,10.00000,0.00906,2000.00000
30.00000,1410.00000,10.00000,0.03768,2000.00000
30.00000,1430.00000,10.00000,0.05370,2000.00000
30.00000,1450.00000,10.00000,0.01460,2000.00000
30.00000,1470.00000,10.00000,-0.03917,2000.00000
30.00000,1490.00000,10.00000,-0.08119,2000.00000
30.00000,1510.00000,10.00000,-0.06389,2000.00000
30.00000,1530.00000,10.00000,0.03244,2000.00000
30.00000,1550.00000,10.00000,0.11157,2000.00000
30.00000,1570.00000,10.00000,0.12782,2000.00000
30.00000,1590.00000,10.00000,0.03661,2000.00000
30.00000,1610.00000,10.00000,-0.07238,2000.00000
30.00000,1630.00000,10.00000,-0.06534,2000.00000
30.00000,1650.00000,10.00000,0.00070,2000.00000
30.00000,1670.00000,10.00000,0.04576,2000.00000
30.00000,1690.00000,10.00000,-0.01566,2000.00000
30.00000,1710.00000,10.00000,-0.11112,2000.00000
30.00000,1730.00000,10.00000,-0.03132,2000.00000
30.00000,1750.00000,10.00000,0.10961,2000.00000
30.00000,1770.00000,10.00000,0.10433,2000.00000
30.00000,1790.00000,10.00000,-0.00295,2000.00000
30.00000,1810.00000,10.00000,-0.08702,2000.00000
30.00000,1830.00000,10.00000,-0.03114,2000.00000
30.00000,1850.00000,10.00000,0.05824,2000.00000
30.00000,1870.00000,10.00000,-0.03308,2000.00000
30.00000,1890.00000,10.00000,-0.08616,2000.00000
30.00000,1910.00000,10.00000,0.08944,2000.00000
30.00000,1930.00000,10.00000,0.12018,2000.00000
30.00000,1950.00000,10.00000,-0.08464,2000.00000
30.00000,1970.00000,10.00000,-0.08913,2000.00000
30.00000,1990.00000,10.00000,0.06009,2000.00000
50.00000,10.00000,10.00000,0.29518,2000.00000
50.00000,30.00000,10.00000,0.01736,2000.00000
50.00000,50.00000,10.00000,-0.24227,2000.00000
50.00000,70.00000,10.00000,-0.03064,2000.00000
50.00000,90.00000,10.00000,0.13365,2000.00000
50.00000,110.00000,10.00000,0.02288,2000.00000
50.00000,130.00000,10.00000,-0.00146,2000.00000
50.00000,150.00000,10.00000,0.01513,2000.00000
50.00000,170.00000,10.00000,-0.07193,2000.00000
50.00000,190.00000,10.00000,-0.03634,2000.00000
50.00000,210.00000,10.00000,0.05789,2000.00000
50.00000,230.00000,10.00000,0.01437,2000.00000
50.00000,250.00000,10.00000,-0.01169,2000.00000
50.00000,270.00000,10.00000,0.00287,2000.00000
50.00000,290.00000,10.00000,0.00296,2000.00000
50.00000,310.00000,10.00000,0.05512,2000.00000
50.00000,330.00000,10.00000,0.01989,2000.00000
50.00000,350.00000,10.00000,-0.08195,2000.00000
50.00000,370.00000,10.00000,-0.06087,2000.00000
50.00000,390.00000,10.00000,0.00376,2000.00000
50.00000,410.00000,10.00000,0.07396,2000.00000
50.00000,430.00000,10.00000,0.09315,2000.00000
50.00000,450.00000,10.00000,-0.00349,2000.00000
50.00000,470.00000,10.00000,-0.06346,2000.00000
50.00000,490.00000,10.00000,-0.07206,2000.00000
50.00000,510.00000,10.00000,-0.02110,2000.00000
50.00000,530.00000,10.00000,0.07384,2000.00000
50.00000,550.00000,10.00000,0.10349,2000.00000
50.00000,570.00000,10.00000,0.10652,2000.00000
50.00000,590.00000,10.00000,0.05285,2000.00000
50.00000,610.00000,10.00000,-0.00908,2000.00000
50.00000,630.00000,10.00000,-0.04745,2000.00000
50.00000,650.00000,10.00000,-0.08091,2000.00000
50.00000,670.00000,10.00000,-0.06955,2000.00000
50.00000,690.00000,10.00000,-0.06805,2000.00000
50.00000,710.00000,10.00000,-0.04238,2000.00000
50.00000,730.00000,10.00000,-0.03151,2000.00000
50.00000,750.00000,10.00000,-0.01721,2000.00000
50.00000,770.00000,10.00000,-0.00747,2000.00000
50.00000,790.00000,10.00000,-0.00627,2000.00000
50.00000,810.00000,10.00000,0.00258,2000.00000
50.00000,830.00000,10.00000,-0.00336,2000.00000
50.00000,850.00000,10.00000,0.00559,2000.00000
50.00000,870.00000,10.00000,-0.00291,2000.00000
50.00000,890.00000,10.00000,0.00604,2000.00000
50.00000,910.00000,10.00000,-0.00282,2000.00000
50.00000,930.00000,10.00000,0.00575,2000.00000
50.00000,950.00000,10.00000,-0.00271,2000.00000
50.00000,970.00000,10.00000,0.00542,2000.00000
50.00000,990.00000,10.00000,-0.00263,2000.00000
50.00000,1010.00000,10.00000,0.00528,2000.00000
50.00000,1030.00000,10.00000,-0.00263,2000.00000
50.00000,1050.00000,10.00000,0.00541,2000.00000
50.00000,1070.00000,10.00000,-0.00274,2000.00000
50.00000,1090.00000,10.00000,0.00567,2000.00000
50.00000,1110.00000,10.00000,-0.00301,2000.00000
50.00000,1130.00000,10.00000,0.00559,2000.00000
50.00000,1150.00000,10.00000,-0.00390,2000.00000
50.00000,1170.00000,10.00000,0.00350,2000.00000
50.00000,1190.00000,10.00000,-0.00749,2000.00000
50.00000,1210.00000,10.00000,-0.00500,2000.00000
50.00000,1230.00000,10.00000,-0.01909,2000.00000
50.00000,1250.00000,10.00000,-0.02721,2000.00000
50.00000,1270.00000,10.00000,-0.04419,2000.00000
50.00000,1290.00000,10.00000,-0.06276,2000.00000
50.00000,1310.00000,10.00000,-0.06963,2000.00000
50.00000,1330.00000,10.00000,-0.07716,2000.00000
50.00000,1350.00000,10.00000,-0.04392,2000.00000
50.00000,1370.00000,10.00000,-0.01030,2000.00000
50.00000,1390.00000,10.00000,0.05962,2000.00000
50.00000,1410.00000,10.00000,0.09912,2000.00000
50.00000,1430.00000,10.00000,0.10794,2000.00000
50.00000,1450.00000,10.00000,0.06503,2000.00000
50.00000,1470.00000,10.00000,-0.02775,2000.00000
50.00000,1490.00000,10.00000,-0.07332,2000.00000
50.00000,1510.00000,10.00000,-0.08108,2000.00000
50.00000,1530.00000,10.00000,0.00465,2000.00000
50.00000,1550.00000,10.00000,0.08554,2000.00000
50.00000,1570.00000,10.00000,0.07909,2000.00000
50.00000,1590.00000,10.00000,0.02821,2000.00000
50.00000,1610.00000,10.00000,-0.06585,2000.00000
50.00000,1630.00000,10.00000,-0.05329,2000.00000
50.00000,1650.00000,10.00000,0.02368,2000.00000
50.00000,1670.00000,10.00000,0.02767,2000.00000
50.00000,1690.00000,10.00000,0.01387,2000.00000
50.00000,1710.00000,10.00000,-0.04232,2000.00000
50.00000,1730.00000,10.00000,-0.04202,2000.00000
50.00000,1750.00000,10.00000,0.05827,2000.00000
50.00000,1770.00000,10.00000,0.04423,2000.00000
50.00000,1790.00000,10.00000,-0.00058,2000.00000
50.00000,1810.00000,10.00000,0.01813,2000.00000
50.00000,1830.00000,10.00000,-0.05304,2000.00000
50.00000,1850.00000,10.00000,-0.06729,2000.00000
50.00000,1870.00000,10.00000,0.05587,2000.00000
50.00000,1890.00000,10.00000,0.04423,2000.00000
50.00000,1910.00000,10.00000,-0.04141,2000.00000
50.00000,1930.00000,10.00000,0.01735,2000.00000
50.00000,1950.00000,10.00000,0.05547,2000.00000
50.00000,1970.00000,10.00000,-0.03624,2000.00000
50.00000,1990.00000,10.00000,-0.07902,2000.00000
70.00000,10.00000,10.00000,0.07086,2000.00000
70.00000,30.00000,10.00000,-0.05406,2000.00000
70.00000,50.00000,10.00000,-0.03064,2000.00000
70.00000,70.00000,10.00000,0.11324,2000.00000
70.00000,90.00000,10.00000,0.01778,2000.00000
70.00000,110.00000,10.00000,-0.11885,2000.00000
70.00000,130.00000,10.00000,-0.06258,2000.00000
70.00000,150.00000,10.00000,0.01423,2000.00000
70.00000,170.00000,10.00000,0.09846,2000.00000
70.00000,190.00000,10.00000,0.13102,2000.00000
70.00000,210.00000,10.00000,-0.04191,2000.00000
70.00000,230.00000,10.00000,-0.12030,2000.00000
70.00000,250.00000,10.00000,-0.00985,2000.00000
70.00000,270.00000,10.00000,-0.02026,2000.00000
70.00000,290.00000,10.00000,-0.02488,2000.00000
70.00000,310.00000,10.00000,0.05259,2000.00000
70.00000,330.00000,10.00000,0.03389,2000.00000
70.00000,350.00000,10.00000,0.04367,2000.00000
70.00000,370.00000,10.00000,0.04597,2000.00000
70.00000,390.00000,10.00000,-0.00315,2000.00000
70.00000,410.00000,10.00000,0.03015,2000.00000
70.00000,430.00000,10.00000,-0.00459,2000.00000
70.00000,450.00000,10.00000,-0.06964,2000.00000
70.00000,470.00000,10.00000,-0.08448,2000.00000
70.00000,490.00000,10.00000,-0.10237,2000.00000
70.00000,510.00000,10.00000,-0.00762,2000.00000
70.00000,530.00000,10.00000,0.08357,2000.00000
70.00000,550.00000,10.00000,0.14212,2000.00000
70.00000,570.00000,10.00000,0.17140,2000.00000
70.00000,590.00000,10.00000,0.10556,2000.00000
70.00000,610.00000,10.00000,0.05925,2000.00000
70.00000,630.00000,10.00000,-0.01852,2000.00000
70.00000,650.00000,10.00000,-0.05544,2000.00000
70.00000,670.00000,10.00000,-0.07210,2000.00000
70.00000,690.00000,10.00000,-0.08436,2000.00000
70.00000,710.00000,10.00000,-0.06329,2000.00000
70.00000,730.00000,10.00000,-0.07211,2000.00000
70.00000,750.00000,10.00000,-0.04765,2000.00000
70.00000,770.00000,10.00000,-0.05911,2000.00000
70.00000,790.00000,10.00000,-0.04287,2000.00000
70.00000,810.00000,10.00000,-0.05177,2000.00000
70.00000,830.00000,10.00000,-0.04347,2000.00000
70.00000,850.00000,10.00000,-0.04625,2000.00000
70.00000,870.00000,10.00000,-0.04382,2000.00000
70.00000,890.00000,10.00000,-0.04090,2000.00000
70.00000,910.00000,10.00000,-0.04275,2000.00000
70.00000,930.00000,10.00000,-0.03620,2000.00000
70.00000,950.00000,10.00000,-0.04115,2000.00000
70.00000,970.00000,10.00000,-0.03301,2000.00000
70.00000,990.00000,10.00000,-0.04006,2000.00000
70.00000,1010.00000,10.00000,-0.03190,2000.00000
70.00000,1030.00000,10.00000,-0.04006,2000.00000
70.00000,1050.00000,10.00000,-0.03303,2000.00000
70.00000,1070.00000,10.00000,-0.04120,2000.00000
70.00000,1090.00000,10.00000,-0.03633,2000.00000
70.00000,1110.00000,10.00000,-0.04307,2000.00000
70.00000,1130.00000,10.00000,-0.04162,2000.00000
70.00000,1150.00000,10.00000,-0.04538,2000.00000
70.00000,1170.00000,10.00000,-0.04943,2000.00000
70.00000,1190.00000,10.00000,-0.04955,2000.00000
70.00000,1210.00000,10.00000,-0.06258,2000.00000
70.00000,1230.00000,10.00000,-0.06055,2000.00000
70.00000,1250.00000,10.00000,-0.08529,2000.00000
70.00000,1270.00000,10.00000,-0.08181,2000.00000
70.00000,1290.00000,10.00000,-0.10933,2000.00000
70.00000,1310.00000,10.00000,-0.09235,2000.00000
70.00000,1330.00000,10.00000,-0.08832,2000.00000
70.00000,1350.00000,10.00000,-0.03366,2000.00000
70.00000,1370.00000,10.00000,0.03221,2000.00000
70.00000,1390.00000,10.00000,0.10255,2000.00000
70.00000,1410.00000,10.00000,0.17142,2000.00000
70.00000,1430.00000,10.00000,0.15439,2000.00000
70.00000,1450.00000,10.00000,0.12338,2000.00000
70.00000,1470.00000,10.00000,0.01731,2000.00000
70.00000,1490.00000,10.00000,-0.04358,2000.00000
70.00000,1510.00000,10.00000,-0.05537,2000.00000
70.00000,1530.00000,10.00000,-0.04860,2000.00000
70.00000,1550.00000,10.00000,0.00994,2000.00000
70.00000,1570.00000,10.00000,-0.02226,2000.00000
70.00000,1590.00000,10.00000,-0.03212,2000.00000
70.00000,1610.00000,10.00000,-0.02154,2000.00000
70.00000,1630.00000,10.00000,-0.02379,2000.00000
70.00000,1650.00000,10.00000,0.05053,2000.00000
70.00000,1670.00000,10.00000,0.04397,2000.00000
70.00000,1690.00000,10.00000,0.04466,2000.00000
70.00000,1710.00000,10.00000,0.09397,2000.00000
70.00000,1730.00000,10.00000,-0.00949,2000.00000
70.00000,1750.00000,10.00000,-0.09072,2000.00000
70.00000,1770.00000,10.00000,-0.07711,2000.00000
70.00000,1790.00000,10.00000,-0.04679,2000.00000
70.00000,1810.00000,10.00000,0.07950,2000.00000
70.00000,1830.00000,10.00000,0.07024,2000.00000
70.00000,1850.00000,10.00000,-0.07206,2000.00000
70.00000,1870.00000,10.00000,0.05361,2000.00000
70.00000,1890.00000,10.00000,0.14370,2000.00000
70.00000,1910.00000,10.00000,-0.13579,2000.00000
70.00000,1930.00000,10.00000,-0.19950,2000.00000
70.00000,1950.00000,10.00000,0.11131,2000.00000
70.00000,1970.00000,10.00000,0.14717,2000.00000
70.00000,1990.00000,10.00000,-0.05566,2000.00000
90.00000,10.00000,10.00000,-0.18195,2000.00000
90.00000,30.00000,10.00000,-0.02968,2000.00000
90.00000,50.00000,10.00000,0.13365,2000.00000
90.00000,70.00000,10.00000,0.01778,2000.00000
90.00000,90.00000,10.00000,-0.05001,2000.00000
90.00000,110.00000,10.00000,0.04066,2000.00000
90.00000,130.00000,10.00000,-0.03274,2000.00000
90.00000,150.00000,10.00000,-0.07860,2000.00000
90.00000,170.00000,10.00000,0.10278,2000.00000
90.00000,190.00000,10.00000,0.05306,2000.00000
90.00000,210.00000,10.00000,-0.14318,2000.00000
90.00000,230.00000,10.00000,-0.00972,2000.00000
90.00000,250.00000,10.00000,0.12015,2000.00000
90.00000,270.00000,10.00000,0.04813,2000.00000
90.00000,290.00000,10.00000,0.01372,2000.00000
90.00000,310.00000,10.00000,-0.07998,2000.00000
90.00000,330.00000,10.00000,-0.08794,2000.00000
90.00000,350.00000,10.00000,0.04634,2000.00000
90.00000,370.00000,10.00000,0.01536,2000.00000
90.00000,390.00000,10.00000,0.00393,2000.00000
90.00000,410.00000,10.00000,0.03634,2000.00000
90.00000,430.00000,10.00000,-0.00076,2000.00000
90.00000,450.00000,10.00000,0.04980,2000.00000
90.00000,470.00000,10.00000,0.01706,2000.00000
90.00000,490.00000,10.00000,-0.01213,2000.00000
90.00000,510.00000,10.00000,0.03339,2000.00000
90.00000,530.00000,10.00000,0.02553,2000.00000
90.00000,550.00000,10.00000,0.08949,2000.00000
90.00000,570.00000,10.00000,0.06878,2000.00000
90.00000,590.00000,10.00000,0.02865,2000.00000
90.00000,610.00000,10.00000,-0.01167,2000.00000
90.00000,630.00000,10.00000,-0.09270,2000.00000
90.00000,650.00000,10.00000,-0.08947,2000.00000
90.00000,670.00000,10.00000,-0.12195,2000.00000
90.00000,690.00000,10.00000,-0.08025,2000.00000
90.00000,710.00000,10.00000,-0.06544,2000.00000
90.00000,730.00000,10.00000,-0.03182,2000.00000
90.00000,750.00000,10.00000,-0.00108,2000.00000
90.00000,770.00000,10.00000,0.00435,2000.00000
90.00000,790.00000,10.00000,0.03542,2000.00000
90.00000,810.00000,10.00000,0.01975,2000.00000
90.00000,830.00000,10.00000,0.04773,2000.00000
90.00000,850.00000,10.00000,0.02341,2000.00000
90.00000,870.00000,10.00000,0.04778,2000.00000
90.00000,890.00000,10.00000,0.02276,2000.00000
90.00000,910.00000,10.00000,0.04365,2000.00000
90.00000,930.00000,10.00000,0.02117,2000.00000
90.00000,950.00000,10.00000,0.03942,2000.00000
90.00000,970.00000,10.00000,0.01989,2000.00000
90.00000,990.00000,10.00000,0.03693,2000.00000
90.00000,1010.00000,10.00000,0.01942,2000.00000
90.00000,1030.00000,10.00000,0.03692,2000.00000
90.00000,1050.00000,10.00000,0.01986,2000.00000
90.00000,1070.00000,10.00000,0.03933,2000.00000
90.00000,1090.00000,10.00000,0.02096,2000.00000
90.00000,1110.00000,10.00000,0.04316,2000.00000
90.00000,1130.00000,10.00000,0.02166,2000.00000
90.00000,1150.00000,10.00000,0.04547,2000.00000
90.00000,1170.00000,10.00000,0.01882,2000.00000
90.00000,1190.00000,10.00000,0.03925,2000.00000
90.00000,1210.00000,10.00000,0.00521,2000.00000
90.00000,1230.00000,10.00000,0.01260,2000.00000
90.00000,1250.00000,10.00000,-0.02787,2000.00000
90.00000,1270.00000,10.00000,-0.04070,2000.00000
90.00000,1290.00000,10.00000,-0.07146,2000.00000
90.00000,1310.00000,10.00000,-0.09123,2000.00000
90.00000,1330.00000,10.00000,-0.07417,2000.00000
90.00000,1350.00000,10.00000,-0.06945,2000.00000
90.00000,1370.00000,10.00000,0.00912,2000.00000
90.00000,1390.00000,10.00000,0.02784,2000.00000
90.00000,1410.00000,10.00000,0.08622,2000.00000
90.00000,1430.00000,10.00000,0.06010,2000.00000
90.00000,1450.00000,10.00000,0.02123,2000.00000
90.00000,1470.00000,10.00000,-0.00277,2000.00000
90.00000,1490.00000,10.00000,-0.05125,2000.00000
90.00000,1510.00000,10.00000,0.00953,2000.00000
90.00000,1530.00000,10.00000,0.00071,2000.00000
90.00000,1550.00000,10.00000,0.02401,2000.00000
90.00000,1570.00000,10.00000,0.04296,2000.00000
90.00000,1590.00000,10.00000,0.01750,2000.00000
90.00000,1610.00000,10.00000,0.09413,2000.00000
90.00000,1630.00000,10.00000,0.03372,2000.00000
90.00000,1650.00000,10.00000,-0.05562,2000.00000
90.00000,1670.00000,10.00000,-0.06461,2000.00000
90.00000,1690.00000,10.00000,-0.08014,2000.00000
90.00000,1710.00000,10.00000,0.06632,2000.00000
90.00000,1730.00000,10.00000,0.09301,2000.00000
90.00000,1750.00000,10.00000,-0.07972,2000.00000
90.00000,1770.00000,10.00000,-0.02912,2000.00000
90.00000,1790.00000,10.00000,0.06506,2000.00000
90.00000,1810.00000,10.00000,0.03622,2000.00000
90.00000,1830.00000,10.00000,0.03507,2000.00000
90.00000,1850.00000,10.00000,-0.06966,2000.00000
90.00000,1870.00000,10.00000,-0.10787,2000.00000
90.00000,1890.00000,10.00000,0.09468,2000.00000
90.00000,1910.00000,10.00000,0.09724,2000.00000
90.00000,1930.00000,10.00000,-0.09585,2000.00000
90.00000,1950.00000,10.00000,-0.04247,2000.00000
90.00000,1970.00000,10.00000,0.06601,2000.00000
90.00000,1990.00000,10.00000,0.00781,2000.00000
110.00000,10.00000,10.00000,-0.08820,2000.00000
110.00000,30.00000,10.00000,0.05219,2000.00000
110.00000,50.00000,10.00000,0.02288,2000.00000
110.00000,70.00000,10.00000,-0.11885,2000.00000
110.00000,90.00000,10.00000,0.04066,2000.00000
110.00000,110.00000,10.00000,0.14439,2000.00000
110.00000,130.00000,10.00000,-0.04784,2000.00000
110.00000,150.00000,10.00000,-0.04676,2000.00000
110.00000,170.00000,10.00000,0.04580,2000.00000
110.00000,190.00000,10.00000,-0.09188,2000.00000
110.00000,210.00000,10.00000,-0.06224,2000.00000
110.00000,230.00000,10.00000,0.09319,2000.00000
110.00000,250.00000,10.00000,0.05862,2000.00000
110.00000,270.00000,10.00000,0.08066,2000.00000
110.00000,290.00000,10.00000,0.01685,2000.00000
110.00000,310.00000,10.00000,-0.16177,2000.00000
110.00000,330.00000,10.00000,-0.03341,2000.00000
110.00000,350.00000,10.00000,0.07130,2000.00000
110.00000,370.00000,10.00000,0.02395,2000.00000
110.00000,390.00000,10.00000,0.04818,2000.00000
110.00000,410.00000,10.00000,-0.05456,2000.00000
110.00000,430.00000,10.00000,-0.03863,2000.00000
110.00000,450.00000,10.00000,0.05746,2000.00000
110.00000,470.00000,10.00000,0.01539,2000.00000
110.00000,490.00000,10.00000,0.06834,2000.00000
110.00000,510.00000,10.00000,0.02742,2000.00000
110.00000,530.00000,10.00000,0.02874,2000.00000
110.00000,550.00000,10.00000,0.08903,2000.00000
110.00000,570.00000,10.00000,0.04523,2000.00000
110.00000,590.00000,10.00000,0.07865,2000.00000
110.00000,610.00000,10.00000,-0.00888,2000.00000
110.00000,630.00000,10.00000,-0.04352,2000.00000
110.00000,650.00000,10.00000,-0.08238,2000.00000
110.00000,670.00000,10.00000,-0.12283,2000.00000
110.00000,690.00000,10.00000,-0.08285,2000.00000
110.00000,710.00000,10.00000,-0.10788,2000.00000
110.00000,730.00000,10.00000,-0.04016,2000.00000
110.00000,750.00000,10.00000,-0.05863,2000.00000
110.00000,770.00000,10.00000,-0.00841,2000.00000
110.00000,790.00000,10.00000,-0.02064,2000.00000
110.00000,810.00000,10.00000,0.00081,2000.00000
110.00000,830.00000,10.00000,-0.00016,2000.00000
110.00000,850.00000,10.00000,-0.00165,2000.00000
110.00000,870.00000,10.00000,0.00964,2000.00000
110.00000,890.00000,10.00000,-0.00644,2000.00000
110.00000,910.00000,10.00000,0.01425,2000.00000
110.00000,930.00000,10.00000,-0.01005,2000.00000
110.00000,950.00000,10.00000,0.01633,2000.00000
110.00000,970.00000,10.00000,-0.01200,2000.00000
110.00000,990.00000,10.00000,0.01711,2000.00000
110.00000,1010.00000,10.00000,-0.01260,2000.00000
110.00000,1030.00000,10.00000,0.01709,2000.00000
110.00000,1050.00000,10.00000,-0.01205,2000.00000
110.00000,1070.00000,10.00000,0.01619,2000.00000
110.00000,1090.00000,10.00000,-0.01038,2000.00000
110.00000,1110.00000,10.00000,0.01350,2000.00000
110.00000,1130.00000,10.00000,-0.00807,2000.00000
110.00000,1150.00000,10.00000,0.00632,2000.00000
110.00000,1170.00000,10.00000,-0.00803,2000.00000
110.00000,1190.00000,10.00000,-0.01154,2000.00000
110.00000,1210.00000,10.00000,-0.01792,2000.00000
110.00000,1230.00000,10.00000,-0.04871,2000.00000
110.00000,1250.00000,10.00000,-0.04588,2000.00000
110.00000,1270.00000,10.00000,-0.10142,2000.00000
110.00000,1290.00000,10.00000,-0.07818,2000.00000
110.00000,1310.00000,10.00000,-0.12533,2000.00000
110.00000,1330.00000,10.00000,-0.06286,2000.00000
110.00000,1350.00000,10.00000,-0.05686,2000.00000
110.00000,1370.00000,10.00000,0.01949,2000.00000
110.00000,1390.00000,10.00000,0.06263,2000.00000
110.00000,1410.00000,10.00000,0.06069,2000.00000
110.00000,1430.00000,10.00000,0.08736,2000.00000
110.00000,1450.00000,10.00000,0.00661,2000.00000
110.00000,1470.00000,10.00000,0.04695,2000.00000
110.00000,1490.00000,10.00000,0.01666,2000.00000
110.00000,1510.00000,10.00000,0.02977,2000.00000
110.00000,1530.00000,10.00000,0.03541,2000.00000
110.00000,1550.00000,10.00000,-0.06566,2000.00000
110.00000,1570.00000,10.00000,-0.00143,2000.00000
110.00000,1590.00000,10.00000,0.01274,2000.00000
110.00000,1610.00000,10.00000,0.08266,2000.00000
110.00000,1630.00000,10.00000,0.11808,2000.00000
110.00000,1650.00000,10.00000,-0.07692,2000.00000
110.00000,1670.00000,10.00000,-0.08876,2000.00000
110.00000,1690.00000,10.00000,-0.04479,2000.00000
110.00000,1710.00000,10.00000,-0.01225,2000.00000
110.00000,1730.00000,10.00000,0.11234,2000.00000
110.00000,1750.00000,10.00000,-0.00154,2000.00000
110.00000,1770.00000,10.00000,-0.05686,2000.00000
110.00000,1790.00000,10.00000,0.10263,2000.00000
110.00000,1810.00000,10.00000,0.01161,2000.00000
110.00000,1830.00000,10.00000,-0.06176,2000.00000
110.00000,1850.00000,10.00000,0.04660,2000.00000
110.00000,1870.00000,10.00000,-0.07716,2000.00000
110.00000,1890.00000,10.00000,-0.13470,2000.00000
110.00000,1910.00000,10.00000,0.13752,2000.00000
110.00000,1930.00000,10.00000,0.19371,2000.00000
110.00000,1950.00000,10.00000,-0.05842,2000.00000
110.00000,1970.00000,10.00000,-0.14124,2000.00000
110.00000,1990.00000,10.00000,-0.03845,2000.00000
130.00000,10.00000,10.00000,0.04274,2000.00000
130.00000,30.00000,10.00000,0.08052,2000.00000
130.00000,50.00000,10.00000,-0.00146,2000.00000
130.00000,70.00000,10.00000,-0.06258,2000.00000
130.00000,90.00000,10.00000,-0.03274,2000.00000
130.00000,110.00000,10.00000,-0.04784,2000.00000
130.00000,130.00000,10.00000,0.02910,2000.00000
130.00000,150.00000,10.00000,0.13080,2000.00000
130.00000,170.00000,10.00000,-0.01987,2000.00000
130.00000,190.00000,10.00000,-0.06273,2000.00000
130.00000,210.00000,10.00000,0.08477,2000.00000
130.00000,230.00000,10.00000,-0.04338,2000.00000
130.00000,250.00000,10.00000,-0.10180,2000.00000
130.00000,270.00000,10.00000,0.05989,2000.00000
130.00000,290.00000,10.00000,-0.03420,2000.00000
130.00000,310.00000,10.00000,-0.03048,2000.00000
130.00000,330.00000,10.00000,0.12502,2000.00000
130.00000,350.00000,10.00000,0.06746,2000.00000
130.00000,370.00000,10.00000,0.10079,2000.00000
130.00000,390.00000,10.00000,0.01246,2000.00000