TITLE = "data/coba_fd_opr_baru206.dat"
VARIABLES = "x","y","z","Wavefield","Velocity"
ZONE T = "Frame 206", I = 100, J = 100, K = 1
10.00000,10.00000,10.00000,0.00000,2000.00000
10.00000,30.00000,10.00000,0.00000,2000.00000
10.00000,50.00000,10.00000,0.00000,2000.00000
10.00000,70.00000,10.00000,0.00000,2000.00000
10.00000,90.00000,10.00000,0.00000,2000.00000
10.00000,110.00000,10.00000,0.00000,2000.00000
10.00000,130.00000,10.00000,0.00000,2000.00000
10.00000,150.00000,10.00000,0.00000,2000.00000
10.00000,170.00000,10.00000,0.00000,2000.00000
10.00000,190.00000,10.00000,0.00000,2000.00000
10.00000,210.00000,10.00000,0.00000,2000.00000
10.00000,230.00000,10.00000,0.00000,2000.00000
10.00000,250.00000,10.00000,0.00000,2000.00000
10.00000,270.00000,10.00000,0.00000,2000.00000
10.00000,290.00000,10.00000,0.00000,2000.00000
10.00000,310.00000,10.00000,0.00000,2000.00000
10.00000,330.00000,10.00000,0.00000,2000.00000
10.00000,350.00000,10.00000,0.00000,2000.00000
10.00000,370.00000,10.00000,0.00000,2000.00000
10.00000,390.00000,10.00000,0.00000,2000.00000
10.00000,410.00000,10.00000,0.00000,2000.00000
10.00000,430.00000,10.00000,0.00000,2000.00000
10.00000,450.00000,10.00000,0.00000,2000.00000
10.00000,470.00000,10.00000,0.00000,2000.00000
10.00000,490.00000,10.00000,0.00000,2000.00000
10.00000,510.00000,10.00000,0.00000,2000.00000
10.00000,530.00000,10.00000,0.00000,2000.00000
10.00000,550.00000,10.00000,0.00000,2000.00000
10.00000,570.00000,10.00000,0.00000,2000.00000
10.00000,590.00000,10.00000,0.00000,2000.00000
10.00000,610.00000,10.00000,0.00000,2000.00000
10.00000,630.00000,10.00000,0.00000,2000.00000
10.00000,650.00000,10.00000,0.00000,2000.00000
10.00000,670.00000,10.00000,0.00000,2000.00000
10.00000,690.00000,10.00000,0.00000,2000.00000
10.00000,710.00000,10.00000,0.00000,2000.00000
10.00000,730.00000,10.00000,0.00000,2000.00000
10.00000,750.00000,10.00000,0.00000,2000.00000
10.00000,770.00000,10.00000,0.00000,2000.00000
10.00000,790.00000,10.00000,0.00000,2000.00000
10.00000,810.00000,10.00000,0.00000,2000.00000
10.00000,830.00000,10.00000,0.00000,2000.00000
10.00000,850.00000,10.00000,0.00000,2000.00000
10.00000,870.00000,10.00000,0.00000,2000.00000
10.00000,890.00000,10.00000,0.00000,2000.00000
10.00000,910.00000,10.00000,0.00000,2000.00000
10.00000,930.00000,10.00000,0.00000,2000.00000
10.00000,950.00000,10.00000,0.00001,2000.00000
10.00000,970.00000,10.00000,0.00001,2000.00000
10.00000,990.00000,10.00000,0.00001,2000.00000
10.00000,1010.00000,10.00000,0.00001,2000.00000
10.00000,1030.00000,10.00000,0.00001,2000.00000
10.00000,1050.00000,10.00000,0.00001,2000.00000
10.00000,1070.00000,10.00000,0.00001,2000.00000
10.00000,1090.00000,10.00000,0.00000,2000.00000
10.00000,1110.00000,10.00000,0.00000,2000.00000
10.00000,1130.00000,10.00000,0.00000,2000.00000
10.00000,1150.00000,10.00000,0.00000,2000.00000
10.00000,1170.00000,10.00000,0.00000,2000.00000
10.00000,1190.00000,10.00000,0.00000,2000.00000
10.00000,1210.00000,10.00000,0.00000,2000.00000
10.00000,1230.00000,10.00000,0.00000,2000.00000
10.00000,1250.00000,10.00000,0.00000,2000.00000
10.00000,1270.00000,10.00000,0.00000,2000.00000
10.00000,1290.00000,10.00000,0.00000,2000.00000
10.00000,1310.00000,10.00000,0.00000,2000.00000
10.00000,1330.00000,10.00000,0.00000,2000.00000
10.00000,1350.00000,10.00000,0.00000,2000.00000
10.00000,1370.00000,10.00000,0.00000,2000.00000
10.00000,1390.00000,10.00000,0.00000,2000.00000
10.00000,1410.00000,10.00000,0.00000,2000.00000
10.00000,1430.00000,10.00000,0.00000,2000.00000
10.00000,1450.00000,10.00000,0.00000,2000.00000
10.00000,1470.00000,10.00000,0.00000,2000.00000
10.00000,1490.00000,10.00000,0.00000,2000.00000
10.00000,1510.00000,10.00000,0.00000,2000.00000
10.00000,1530.00000,10.00000,0.00000,2000.00000
10.00000,1550.00000,10.00000,0.00000,2000.00000
10.00000,1570.00000,10.00000,0.00000,2000.00000
10.00000,1590.00000,10.00000,0.00000,2000.00000
10.00000,1610.00000,10.00000,0.00000,2000.00000
10.00000,1630.00000,10.00000,0.00000,2000.00000
10.00000,1650.00000,10.00000,0.00000,2000.00000
10.00000,1670.00000,10.00000,0.00000,2000.00000
10.00000,1690.00000,10.00000,0.00000,2000.00000
10.00000,1710.00000,10.00000,0.00000,2000.00000
10.00000,1730.00000,10.00000,0.00000,2000.00000
10.00000,1750.00000,10.00000,0.00000,2000.00000
10.00000,1770.00000,10.00000,0.00000,2000.00000
10.00000,1790.00000,10.00000,0.00000,2000.00000
10.00000,1810.00000,10.00000,0.00000,2000.00000
10.00000,1830.00000,10.00000,0.00000,2000.00000
10.00000,1850.00000,10.00000,0.00000,2000.00000
10.00000,1870.00000,10.00000,0.00000,2000.00000
10.00000,1890.00000,10.00000,0.00000,2000.00000
10.00000,1910.00000,10.00000,0.00000,2000.00000
10.00000,1930.00000,10.00000,0.00000,2000.00000
10.00000,1950.00000,10.00000,0.00000,2000.00000
10.00000,1970.00000,10.00000,0.00000,2000.00000
10.00000,1990.00000,10.00000,0.00000,2000.00000
30.00000,10.00000,10.00000,0.00000,2000.00000
30.00000,30.00000,10.00000,0.00000,2000.00000
30.00000,50.00000,10.00000,0.00000,2000.00000
30.00000,70.00000,10.00000,0.00000,2000.00000
30.00000,90.00000,10.00000,0.00000,2000.00000
30.00000,110.00000,10.00000,0.00000,2000.00000
30.00000,130.00000,10.00000,0.00000,2000.00000
30.00000,150.00000,10.00000,0.00000,2000.00000
30.00000,170.00000,10.00000,0.00000,2000.00000
30.00000,190.00000,10.00000,0.00000,2000.00000
30.00000,210.00000,10.00000,0.00000,2000.00000
30.00000,230.00000,10.00000,0.00000,2000.00000
30.00000,250.00000,10.00000,0.00000,2000.00000
30.00000,270.00000,10.00000,0.00000,2000.00000
30.00000,290.00000,10.00000,0.00000,2000.00000
30.00000,310.00000,10.00000,0.00000,2000.00000
30.00000,330.00000,10.00000,0.00000,2000.00000
30.00000,350.00000,10.00000,0.00000,2000.00000
30.00000,370.00000,10.00000,0.00000,2000.00000
30.00000,390.00000,10.00000,0.00000,2000.00000
30.00000,410.00000,10.00000,0.00000,2000.00000
30.00000,430.00000,10.00000,0.00000,2000.00000
30.00000,450.00000,10.00000,0.00000,2000.00000
30.00000,470.00000,10.00000,0.00000,2000.00000
30.00000,490.00000,10.00000,0.00000,2000.00000
30.00000,510.00000,10.00000,0.00000,2000.00000
30.00000,530.00000,10.00000,0.00000,2000.00000
30.00000,550.00000,10.00000,0.00000,2000.00000
30.00000,570.00000,10.00000,0.00000,2000.00000
30.00000,590.00000,10.00000,0.00000,2000.00000
30.00000,610.00000,10.00000,0.00000,2000.00000
30.00000,630.00000,10.00000,0.00000,2000.00000
30.00000,650.00000,10.00000,0.00000,2000.00000
30.00000,670.00000,10.00000,0.00000,2000.00000
30.00000,690.00000,10.00000,0.00000,2000.00000
30.00000,710.00000,10.00000,0.00000,2000.00000
30.00000,730.00000,10.00000,0.00000,2000.00000
30.00000,750.00000,10.00000,0.00000,2000.00000
30.00000,770.00000,10.00000,0.00000,2000.00000
30.00000,790.00000,10.00000,0.00000,2000.00000
30.00000,810.00000,10.00000,0.00000,2000.00000
30.00000,830.00000,10.00000,0.00001,2000.00000
30.00000,850.00000,10.00000,0.00001,2000.00000
30.00000,870.00000,10.00000,0.00001,2000.00000
30.00000,890.00000,10.00000,0.00001,2000.00000
30.00000,910.00000,10.00000,0.00002,2000.00000
30.00000,930.00000,10.00000,0.00002,2000.00000
30.00000,950.00000,10.00000,0.00002,2000.00000
30.00000,970.00000,10.00000,0.00003,2000.00000
30.00000,990.00000,10.00000,0.00003,2000.00000
30.00000,1010.00000,10.00000,0.00003,2000.00000
30.00000,1030.00000,10.00000,0.00003,2000.00000
30.00000,1050.00000,10.00000,0.00003,2000.00000
30.00000,1070.00000,10.00000,0.00002,2000.00000
30.00000,1090.00000,10.00000,0.00002,2000.00000
30.00000,1110.00000,10.00000,0.00002,2000.00000
30.00000,1130.00000,10.00000,0.00001,2000.00000
30.00000,1150.00000,10.00000,0.00001,2000.00000
30.00000,1170.00000,10.00000,0.00001,2000.00000
30.00000,1190.00000,10.00000,0.00001,2000.00000
30.00000,1210.00000,10.00000,0.00000,2000.00000
30.00000,1230.00000,10.00000,0.00000,2000.00000
30.00000,1250.00000,10.00000,0.00000,2000.00000
30.00000,1270.00000,10.00000,0.00000,2000.00000
30.00000,1290.00000,10.00000,0.00000,2000.00000
30.00000,1310.00000,10.00000,0.00000,2000.00000
30.00000,1330.00000,10.00000,0.00000,2000.00000
30.00000,1350.00000,10.00000,0.00000,2000.00000
30.00000,1370.00000,10.00000,0.00000,2000.00000
30.00000,1390.00000,10.00000,0.00000,2000.00000
30.00000,1410.00000,10.00000,0.00000,2000.00000
30.00000,1430.00000,10.00000,0.00000,2000.00000
30.00000,1450.00000,10.00000,0.00000,2000.00000
30.00000,1470.00000,10.00000,0.00000,2000.00000
30.00000,1490.00000,10.00000,0.00000,2000.00000
30.00000,1510.00000,10.00000,0.00000,2000.00000
30.00000,1530.00000,10.00000,0.00000,2000.00000
30.00000,1550.00000,10.00000,0.00000,2000.00000
30.00000,1570.00000,10.00000,0.00000,2000.00000
30.00000,1590.00000,10.00000,0.00000,2000.00000
30.00000,1610.00000,10.00000,0.00000,2000.00000
30.00000,1630.00000,10.00000,0.00000,2000.00000
30.00000,1650.00000,10.00000,0.00000,2000.00000
30.00000,1670.00000,10.00000,0.00000,2000.00000
30.00000,1690.00000,10.00000,0.00000,2000.00000
30.00000,1710.00000,10.00000,0.00000,2000.00000
30.00000,1730.00000,10.00000,0.00000,2000.00000
30.00000,1750.00000,10.00000,0.00000,2000.00000
30.00000,1770.00000,10.00000,0.00000,2000.00000
30.00000,1790.00000,10.00000,0.00000,2000.00000
30.00000,1810.00000,10.00000,0.00000,2000.00000
30.00000,1830.00000,10.00000,0.00000,2000.00000
30.00000,1850.00000,10.00000,0.00000,2000.00000
30.00000,1870.00000,10.00000,0.00000,2000.00000
30.00000,1890.00000,10.00000,0.00000,2000.00000
30.00000,1910.00000,10.00000,0.00000,2000.00000
30.00000,1930.00000,10.00000,0.00000,2000.00000
30.00000,1950.00000,10.00000,0.00000,2000.00000
30.00000,1970.00000,10.00000,0.00000,2000.00000
30.00000,1990.00000,10.00000,0.00000,2000.00000
50.00000,10.00000,10.00000,0.00000,2000.00000
50.00000,30.00000,10.00000,0.00000,2000.00000
50.00000,50.00000,10.00000,0.00000,2000.00000
50.00000,70.00000,10.00000,0.00000,2000.00000
50.00000,90.00000,10.00000,0.00000,2000.00000
50.00000,110.00000,10.00000,0.00000,2000.00000
50.00000,130.00000,10.00000,0.00000,2000.00000
50.00000,150.00000,10.00000,0.00000,2000.00000
50.00000,170.00000,10.00000,0.00000,2000.00000
50.00000,190.00000,10.00000,0.00000,2000.00000
50.00000,210.00000,10.00000,0.00000,2000.00000
50.00000,230.00000,10.00000,0.00000,2000.00000
50.00000,250.00000,10.00000,0.00000,2000.00000
50.00000,270.00000,10.00000,0.00000,2000.00000
50.00000,290.00000,10.00000,0.00000,2000.00000
50.00000,310.00000,10.00000,0.00000,2000.00000
50.00000,330.00000,10.00000,0.00000,2000.00000
50.00000,350.00000,10.00000,0.00000,2000.00000
50.00000,370.00000,10.00000,0.00000,2000.00000
50.00000,390.00000,10.00000,0.00000,2000.00000
50.00000,410.00000,10.00000,0.00000,2000.00000
50.00000,430.00000,10.00000,0.00000,2000.00000
50.00000,450.00000,10.00000,0.00000,2000.00000
50.00000,470.00000,10.00000,0.00000,2000.00000
50.00000,490.00000,10.00000,0.00000,2000.00000
50.00000,510.00000,10.00000,0.00000,2000.00000
50.00000,530.00000,10.00000,0.00000,2000.00000
50.00000,550.00000,10.00000,0.00000,2000.00000
50.00000,570.00000,10.00000,0.00000,2000.00000
50.00000,590.00000,10.00000,0.00000,2000.00000
50.00000,610.00000,10.00000,0.00000,2000.00000
50.00000,630.00000,10.00000,0.00000,2000.00000
50.00000,650.00000,10.00000,0.00000,2000.00000
50.00000,670.00000,10.00000,0.00000,2000.00000
50.00000,690.00000,10.00000,0.00000,2000.00000
50.00000,710.00000,10.00000,0.00000,2000.00000
50.00000,730.00000,10.00000,0.00000,2000.00000
50.00000,750.00000,10.00000,0.00000,2000.00000
50.00000,770.00000,10.00000,0.00001,2000.00000
50.00000,790.00000,10.00000,0.00001,2000.00000
50.00000,810.00000,10.00000,0.00002,2000.00000
50.00000,830.00000,10.00000,0.00003,2000.00000
50.00000,850.00000,10.00000,0.00003,2000.00000
50.00000,870.00000,10.00000,0.00004,2000.00000
50.00000,890.00000,10.00000,0.00006,2000.00000
50.00000,910.00000,10.00000,0.00007,2000.00000
50.00000,930.00000,10.00000,0.00008,2000.00000
50.00000,950.00000,10.00000,0.00009,2000.00000
50.00000,970.00000,10.00000,0.00010,2000.00000
50.00000,990.00000,10.00000,0.00010,2000.00000
50.00000,1010.00000,10.00000,0.00010,2000.00000
50.00000,1030.00000,10.00000,0.00010,2000.00000
50.00000,1050.00000,10.00000,0.00010,2000.00000
50.00000,1070.00000,10.00000,0.00009,2000.00000
50.00000,1090.00000,10.00000,0.00008,2000.00000
50.00000,1110.00000,10.00000,0.00007,2000.00000
50.00000,1130.00000,10.00000,0.00006,2000.00000
50.00000,1150.00000,10.00000,0.00004,2000.00000
50.00000,1170.00000,10.00000,0.00003,2000.00000
50.00000,1190.00000,10.00000,0.00003,2000.00000
50.00000,1210.00000,10.00000,0.00002,2000.00000
50.00000,1230.00000,10.00000,0.00001,2000.00000
50.00000,1250.00000,10.00000,0.00001,2000.00000
50.00000,1270.00000,10.00000,0.00000,2000.00000
50.00000,1290.00000,10.00000,0.00000,2000.00000
50.00000,1310.00000,10.00000,0.00000,2000.00000
50.00000,1330.00000,10.00000,0.00000,2000.00000
50.00000,1350.00000,10.00000,0.00000,2000.00000
50.00000,1370.00000,10.00000,0.00000,2000.00000
50.00000,1390.00000,10.00000,0.00000,2000.00000
50.00000,1410.00000,10.00000,0.00000,2000.00000
50.00000,1430.00000,10.00000,0.00000,2000.00000
50.00000,1450.00000,10.00000,0.00000,2000.00000
50.00000,1470.00000,10.00000,0.00000,2000.00000
50.00000,1490.00000,10.00000,0.00000,2000.00000
50.00000,1510.00000,10.00000,0.00000,2000.00000
50.00000,1530.00000,10.00000,0.00000,2000.00000
50.00000,1550.00000,10.00000,0.00000,2000.00000
50.00000,1570.00000,10.00000,0.00000,2000.00000
50.00000,1590.00000,10.00000,0.00000,2000.00000
50.00000,1610.00000,10.00000,0.00000,2000.00000
50.00000,1630.00000,10.00000,0.00000,2000.00000
50.00000,1650.00000,10.00000,0.00000,2000.00000
50.00000,1670.00000,10.00000,0.00000,2000.00000
50.00000,1690.00000,10.00000,0.00000,2000.00000
50.00000,1710.00000,10.00000,0.00000,2000.00000
50.00000,1730.00000,10.00000,0.00000,2000.00000
50.00000,1750.00000,10.00000,0.00000,2000.00000
50.00000,1770.00000,10.00000,0.00000,2000.00000
50.00000,1790.00000,10.00000,0.00000,2000.00000
50.00000,1810.00000,10.00000,0.00000,2000.00000
50.00000,1830.00000,10.00000,0.00000,2000.00000
50.00000,1850.00000,10.00000,0.00000,2000.00000
50.00000,1870.00000,10.00000,0.00000,2000.00000
50.00000,1890.00000,10.00000,0.00000,2000.00000
50.00000,1910.00000,10.00000,0.00000,2000.00000
50.00000,1930.00000,10.00000,0.00000,2000.00000
50.00000,1950.00000,10.00000,0.00000,2000.00000
50.00000,1970.00000,10.00000,0.00000,2000.00000
50.00000,1990.00000,10.00000,0.00000,2000.00000
70.00000,10.00000,10.00000,0.00000,2000.00000
70.00000,30.00000,10.00000,0.00000,2000.00000
70.00000,50.00000,10.00000,0.00000,2000.00000
70.00000,70.00000,10.00000,0.00000,2000.00000
70.00000,90.00000,10.00000,0.00000,2000.00000
70.00000,110.00000,10.00000,0.00000,2000.00000
70.00000,130.00000,10.00000,0.00000,2000.00000
70.00000,150.00000,10.00000,0.00000,2000.00000
70.00000,170.00000,10.00000,0.00000,2000.00000
70.00000,190.00000,10.00000,0.00000,2000.00000
70.00000,210.00000,10.00000,0.00000,2000.00000
70.00000,230.00000,10.00000,0.00000,2000.00000
70.00000,250.00000,10.00000,0.00000,2000.00000
70.00000,270.00000,10.00000,0.00000,2000.00000
70.00000,290.00000,10.00000,0.00000,2000.00000
70.00000,310.00000,10.00000,0.00000,2000.00000
70.00000,330.00000,10.00000,0.00000,2000.00000
70.00000,350.00000,10.00000,0.00000,2000.00000
70.00000,370.00000,10.00000,0.00000,2000.00000
70.00000,390.00000,10.00000,0.00000,2000.00000
70.00000,410.00000,10.00000,0.00000,2000.00000
70.00000,430.00000,10.00000,0.00000,2000.00000
70.00000,450.00000,10.00000,0.00000,2000.00000
70.00000,470.00000,10.00000,0.00000,2000.00000
70.00000,490.00000,10.00000,0.00000,2000.00000
70.00000,510.00000,10.00000,0.00000,2000.00000
70.00000,530.00000,10.00000,0.00000,2000.00000
70.00000,550.00000,10.00000,0.00000,2000.00000
70.00000,570.00000,10.00000,0.00000,2000.00000
70.00000,590.00000,10.00000,0.00000,2000.00000
70.00000,610.00000,10.00000,0.00000,2000.00000
70.00000,630.00000,10.00000,0.00000,2000.00000
70.00000,650.00000,10.00000,0.00000,2000.00000
70.00000,670.00000,10.00000,0.00000,2000.00000
70.00000,690.00000,10.00000,0.00000,2000.00000
70.00000,710.00000,10.00000,0.00001,2000.00000
70.00000,730.00000,10.00000,0.00001,2000.00000
70.00000,750.00000,10.00000,0.00002,2000.00000
70.00000,770.00000,10.00000,0.00003,2000.00000
70.00000,790.00000,10.00000,0.00005,2000.00000
70.00000,810.00000,10.00000,0.00007,2000.00000
70.00000,830.00000,10.00000,0.00009,2000.00000
70.00000,850.00000,10.00000,0.00013,2000.00000
70.00000,870.00000,10.00000,0.00016,2000.00000
70.00000,890.00000,10.00000,0.00020,2000.00000
70.00000,910.00000,10.00000,0.00024,2000.00000
70.00000,930.00000,10.00000,0.00027,2000.00000
70.00000,950.00000,10.00000,0.00031,2000.00000
70.00000,970.00000,10.00000,0.00033,2000.00000
70.00000,990.00000,10.00000,0.00035,2000.00000
70.00000,1010.00000,10.00000,0.00035,2000.00000
70.00000,1030.00000,10.00000,0.00035,2000.00000
70.00000,1050.00000,10.00000,0.00033,2000.00000
70.00000,1070.00000,10.00000,0.00031,2000.00000
70.00000,1090.00000,10.00000,0.00027,2000.00000
70.00000,1110.00000,10.00000,0.00024,2000.00000
70.00000,1130.00000,10.00000,0.00020,2000.00000
70.00000,1150.00000,10.00000,0.00016,2000.00000
70.00000,1170.00000,10.00000,0.00013,2000.00000
70.00000,1190.00000,10.00000,0.00009,2000.00000
70.00000,1210.00000,10.00000,0.00007,2000.00000
70.00000,1230.00000,10.00000,0.00005,2000.00000
70.00000,1250.00000,10.00000,0.00003,2000.00000
70.00000,1270.00000,10.00000,0.00002,2000.00000
70.00000,1290.00000,10.00000,0.00001,2000.00000
70.00000,1310.00000,10.00000,0.00001,2000.00000
70.00000,1330.00000,10.00000,0.00000,2000.00000
70.00000,1350.00000,10.00000,0.00000,2000.00000
70.00000,1370.00000,10.00000,0.00000,2000.00000
70.00000,1390.00000,10.00000,0.00000,2000.00000
70.00000,1410.00000,10.00000,0.00000,2000.00000
70.00000,1430.00000,10.00000,0.00000,2000.00000
70.00000,1450.00000,10.00000,0.00000,2000.00000
70.00000,1470.00000,10.00000,0.00000,2000.00000
70.00000,1490.00000,10.00000,0.00000,2000.00000
70.00000,1510.00000,10.00000,0.00000,2000.00000
70.00000,1530.00000,10.00000,0.00000,2000.00000
70.00000,1550.00000,10.00000,0.00000,2000.00000
70.00000,1570.00000,10.00000,0.00000,2000.00000
70.00000,1590.00000,10.00000,0.00000,2000.00000
70.00000,1610.00000,10.00000,0.00000,2000.00000
70.00000,1630.00000,10.00000,0.00000,2000.00000
70.00000,1650.00000,10.00000,0.00000,2000.00000
70.00000,1670.00000,10.00000,0.00000,2000.00000
70.00000,1690.00000,10.00000,0.00000,2000.00000
70.00000,1710.00000,10.00000,0.00000,2000.00000
70.00000,1730.00000,10.00000,0.00000,2000.00000
70.00000,1750.00000,10.00000,0.00000,2000.00000
70.00000,1770.00000,10.00000,0.00000,2000.00000
70.00000,1790.00000,10.00000,0.00000,2000.00000
70.00000,1810.00000,10.00000,0.00000,2000.00000
70.00000,1830.00000,10.00000,0.00000,2000.00000
70.00000,1850.00000,10.00000,0.00000,2000.00000
70.00000,1870.00000,10.00000,0.00000,2000.00000
70.00000,1890.00000,10.00000,0.00000,2000.00000
70.00000,1910.00000,10.00000,0.00000,2000.00000
70.00000,1930.00000,10.00000,0.00000,2000.00000
70.00000,1950.00000,10.00000,0.00000,2000.00000
70.00000,1970.00000,10.00000,0.00000,2000.00000
70.00000,1990.00000,10.00000,0.00000,2000.00000
90.00000,10.00000,10.00000,0.00000,2000.00000
90.00000,30.00000,10.00000,0.00000,2000.00000
90.00000,50.00000,10.00000,0.00000,2000.00000
90.00000,70.00000,10.00000,0.00000,2000.00000
90.00000,90.00000,10.00000,0.00000,2000.00000
90.00000,110.00000,10.00000,0.00000,2000.00000
90.00000,130.00000,10.00000,0.00000,2000.00000
90.00000,150.00000,10.00000,0.00000,2000.00000
90.00000,170.00000,10.00000,0.00000,2000.00000
90.00000,190.00000,10.00000,0.00000,2000.00000
90.00000,210.00000,10.00000,0.00000,2000.00000
90.00000,230.00000,10.00000,0.00000,2000.00000
90.00000,250.00000,10.00000,0.00000,2000.00000
90.00000,270.00000,10.00000,0.00000,2000.00000
90.00000,290.00000,10.00000,0.00000,2000.00000
90.00000,310.00000,10.00000,0.00000,2000.00000
90.00000,330.00000,10.00000,0.00000,2000.00000
90.00000,350.00000,10.00000,0.00000,2000.00000
90.00000,370.00000,10.00000,0.00000,2000.00000
90.00000,390.00000,10.00000,0.00000,2000.00000
90.00000,410.00000,10.00000,0.00000,2000.00000
90.00000,430.00000,10.00000,0.00000,2000.00000
90.00000,450.00000,10.00000,0.00000,2000.00000
90.00000,470.00000,10.00000,0.00000,2000.00000
90.00000,490.00000,10.00000,0.00000,2000.00000
90.00000,510.00000,10.00000,0.00000,2000.00000
90.00000,530.00000,10.00000,0.00000,2000.00000
90.00000,550.00000,10.00000,0.00000,2000.00000
90.00000,570.00000,10.00000,0.00000,2000.00000
90.00000,590.00000,10.00000,0.00000,2000.00000
90.00000,610.00000,10.00000,0.00000,2000.00000
90.00000,630.00000,10.00000,0.00000,2000.00000
90.00000,650.00000,10.00000,0.00000,2000.00000
90.00000,670.00000,10.00000,0.00001,2000.00000
90.00000,690.00000,10.00000,0.00001,2000.00000
90.00000,710.00000,10.00000,0.00003,2000.00000
90.00000,730.00000,10.00000,0.00005,2000.00000
90.00000,750.00000,10.00000,0.00007,2000.00000
90.00000,770.00000,10.00000,0.00012,2000.00000
90.00000,790.00000,10.00000,0.00017,2000.00000
90.00000,810.00000,10.00000,0.00024,2000.00000
90.00000,830.00000,10.00000,0.00033,2000.00000
90.00000,850.00000,10.00000,0.00043,2000.00000
90.00000,870.00000,10.00000,0.00054,2000.00000
90.00000,890.00000,10.00000,0.00066,2000.00000
90.00000,910.00000,10.00000,0.00077,2000.00000
90.00000,930.00000,10.00000,0.00088,2000.00000
90.00000,950.00000,10.00000,0.00097,2000.00000
90.00000,970.00000,10.00000,0.00104,2000.00000
90.00000,990.00000,10.00000,0.00109,2000.00000
90.00000,1010.00000,10.00000,0.00111,2000.00000
90.00000,1030.00000,10.00000,0.00109,2000.00000
90.00000,1050.00000,10.00000,0.00104,2000.00000
90.00000,1070.00000,10.00000,0.00097,2000.00000
90.00000,1090.00000,10.00000,0.00088,2000.00000
90.00000,1110.00000,10.00000,0.00077,2000.00000
90.00000,1130.00000,10.00000,0.00066,2000.00000
90.00000,1150.00000,10.00000,0.00054,2000.00000
90.00000,1170.00000,10.00000,0.00043,2000.00000
90.00000,1190.00000,10.00000,0.00033,2000.00000
90.00000,1210.00000,10.00000,0.00024,2000.00000
90.00000,1230.00000,10.00000,0.00017,2000.00000
90.00000,1250.00000,10.00000,0.00012,2000.00000
90.00000,1270.00000,10.00000,0.00007,2000.00000
90.00000,1290.00000,10.00000,0.00005,2000.00000
90.00000,1310.00000,10.00000,0.00003,2000.00000
90.00000,1330.00000,10.00000,0.00001,2000.00000
90.00000,1350.00000,10.00000,0.00001,2000.00000
90.00000,1370.00000,10.00000,0.00000,2000.00000
90.00000,1390.00000,10.00000,0.00000,2000.00000
90.00000,1410.00000,10.00000,0.00000,2000.00000
90.00000,1430.00000,10.00000,0.00000,2000.00000
90.00000,1450.00000,10.00000,0.00000,2000.00000
90.00000,1470.00000,10.00000,0.00000,2000.00000
90.00000,1490.00000,10.00000,0.00000,2000.00000
90.00000,1510.00000,10.00000,0.00000,2000.00000
90.00000,1530.00000,10.00000,0.00000,2000.00000
90.00000,1550.00000,10.00000,0.00000,2000.00000
90.00000,1570.00000,10.00000,0.00000,2000.00000
90.00000,1590.00000,10.00000,0.00000,2000.00000
90.00000,1610.00000,10.00000,0.00000,2000.00000
90.00000,1630.00000,10.00000,0.00000,2000.00000
90.00000,1650.00000,10.00000,0.00000,2000.00000
90.00000,1670.00000,10.00000,0.00000,2000.00000
90.00000,1690.00000,10.00000,0.00000,2000.00000
90.00000,1710.00000,10.00000,0.00000,2000.00000
90.00000,1730.00000,10.00000,0.00000,2000.00000
90.00000,1750.00000,10.00000,0.00000,2000.00000
90.00000,1770.00000,10.00000,0.00000,2000.00000
90.00000,1790.00000,10.00000,0.00000,2000.00000
90.00000,1810.00000,10.00000,0.00000,2000.00000
90.00000,1830.00000,10.00000,0.00000,2000.00000
90.00000,1850.00000,10.00000,0.00000,2000.00000
90.00000,1870.00000,10.00000,0.00000,2000.00000
90.00000,1890.00000,10.00000,0.00000,2000.00000
90.00000,1910.00000,10.00000,0.00000,2000.00000
90.00000,1930.00000,10.00000,0.00000,2000.00000
90.00000,1950.00000,10.00000,0.00000,2000.00000
90.00000,1970.00000,10.00000,0.00000,2000.00000
90.00000,1990.00000,10.00000,0.00000,2000.00000
110.00000,10.00000,10.00000,0.00000,2000.00000
110.00000,30.00000,10.00000,0.00000,2000.00000
110.00000,50.00000,10.00000,0.00000,2000.00000
110.00000,70.00000,10.00000,0.00000,2000.00000
110.00000,90.00000,10.00000,0.00000,2000.00000
110.00000,110.00000,10.00000,0.00000,2000.00000
110.00000,130.00000,10.00000,0.00000,2000.00000
110.00000,150.00000,10.00000,0.00000,2000.00000
110.00000,170.00000,10.00000,0.00000,2000.00000
110.00000,190.00000,10.00000,0.00000,2000.00000
110.00000,210.00000,10.00000,0.00000,2000.00000
110.00000,230.00000,10.00000,0.00000,2000.00000
110.00000,250.00000,10.00000,0.00000,2000.00000
110.00000,270.00000,10.00000,0.00000,2000.00000
110.00000,290.00000,10.00000,0.00000,2000.00000
110.00000,310.00000,10.00000,0.00000,2000.00000
110.00000,330.00000,10.00000,0.00000,2000.00000
110.00000,350.00000,10.00000,0.00000,2000.00000
110.00000,370.00000,10.00000,0.00000,2000.00000
110.00000,390.00000,10.00000,0.00000,2000.00000
110.00000,410.00000,10.00000,0.00000,2000.00000
110.00000,430.00000,10.00000,0.00000,2000.00000
110.00000,450.00000,10.00000,0.00000,2000.00000
110.00000,470.00000,10.00000,0.00000,2000.00000
110.00000,490.00000,10.00000,0.00000,2000.00000
110.00000,510.00000,10.00000,0.00000,2000.00000
110.00000,530.00000,10.00000,0.00000,2000.00000
110.00000,550.00000,10.00000,0.00000,2000.00000
110.00000,570.00000,10.00000,0.00000,2000.00000
110.00000,590.00000,10.00000,0.00000,2000.00000
110.00000,610.00000,10.00000,0.00000,2000.00000
110.00000,630.00000,10.00000,0.00001,2000.00000
110.00000,650.00000,10.00000,0.00002,2000.00000
110.00000,670.00000,10.00000,0.00003,2000.00000
110.00000,690.00000,10.00000,0.00006,2000.00000
110.00000,710.00000,10.00000,0.00010,2000.00000
110.00000,730.00000,10.00000,0.00017,2000.00000
110.00000,750.00000,10.00000,0.00027,2000.00000
110.00000,770.00000,10.00000,0.00040,2000.00000
110.00000,790.00000,10.00000,0.00057,2000.00000
110.00000,810.00000,10.00000,0.00079,2000.00000
110.00000,830.00000,10.00000,0.00105,2000.00000
110.00000,850.00000,10.00000,0.00134,2000.00000
110.00000,870.00000,10.00000,0.00166,2000.00000
110.00000,890.00000,10.00000,0.00198,2000.00000
110.00000,910.00000,10.00000,0.00230,2000.00000
110.00000,930.00000,10.00000,0.00259,2000.00000
110.00000,950.00000,10.00000,0.00284,2000.00000
110.00000,970.00000,10.00000,0.00303,2000.00000
110.00000,990.00000,10.00000,0.00315,2000.00000
110.00000,1010.00000,10.00000,0.00319,2000.00000
110.00000,1030.00000,10.00000,0.00315,2000.00000
110.00000,1050.00000,10.00000,0.00303,2000.00000
110.00000,1070.00000,10.00000,0.00284,2000.00000
110.00000,1090.00000,10.00000,0.00259,2000.00000
110.00000,1110.00000,10.00000,0.00230,2000.00000
110.00000,1130.00000,10.00000,0.00198,2000.00000
110.00000,1150.00000,10.00000,0.00166,2000.00000
110.00000,1170.00000,10.00000,0.00134,2000.00000
110.00000,1190.00000,10.00000,0.00105,2000.00000
110.00000,1210.00000,10.00000,0.00079,2000.00000
110.00000,1230.00000,10.00000,0.00057,2000.00000
110.00000,1250.00000,10.00000,0.00040,2000.00000
110.00000,1270.00000,10.00000,0.00027,2000.00000
110.00000,1290.00000,10.00000,0.00017,2000.00000
110.00000,1310.00000,10.00000,0.00010,2000.00000
110.00000,1330.00000,10.00000,0.00006,2000.00000
110.00000,1350.00000,10.00000,0.00003,2000.00000
110.00000,1370.00000,10.00000,0.00002,2000.00000
110.00000,1390.00000,10.00000,0.00001,2000.00000
110.00000,1410.00000,10.00000,0.00000,2000.00000
110.00000,1430.00000,10.00000,0.00000,2000.00000
110.00000,1450.00000,10.00000,0.00000,2000.00000
110.00000,1470.00000,10.00000,0.00000,2000.00000
110.00000,1490.00000,10.00000,0.00000,2000.00000
110.00000,1510.00000,10.00000,0.00000,2000.00000
110.00000,1530.00000,10.00000,0.00000,2000.00000
110.00000,1550.00000,10.00000,0.00000,2000.00000
110.00000,1570.00000,10.00000,0.00000,2000.00000
110.00000,1590.00000,10.00000,0.00000,2000.00000
110.00000,1610.00000,10.00000,0.00000,2000.00000
110.00000,1630.00000,10.00000,0.00000,2000.00000
110.00000,1650.00000,10.00000,0.00000,2000.00000
110.00000,1670.00000,10.00000,0.00000,2000.00000
110.00000,1690.00000,10.00000,0.00000,2000.00000
110.00000,1710.00000,10.00000,0.00000,2000.00000
110.00000,1730.00000,10.00000,0.00000,2000.00000
110.00000,1750.00000,10.00000,0.00000,2000.00000
110.00000,1770.00000,10.00000,0.00000,2000.00000
110.00000,1790.00000,10.00000,0.00000,2000.00000
110.00000,1810.00000,10.00000,0.00000,2000.00000
110.00000,1830.00000,10.00000,0.00000,2000.00000
110.00000,1850.00000,10.00000,0.00000,2000.00000
110.00000,1870.00000,10.00000,0.00000,2000.00000
110.00000,1890.00000,10.00000,0.00000,2000.00000
110.00000,1910.00000,10.00000,0.00000,2000.00000
110.00000,1930.00000,10.00000,0.00000,2000.00000
110.00000,1950.00000,10.00000,0.00000,2000.00000
110.00000,1970.00000,10.00000,0.00000,2000.00000
110.00000,1990.00000,10.00000,0.00000,2000.00000
130.00000,10.00000,10.00000,0.00000,2000.00000
130.00000,30.00000,10.00000,0.00000,2000.00000
130.00000,50.00000,10.00000,0.00000,2000.00000
130.00000,70.00000,10.00000,0.00000,2000.00000
130.00000,90.00000,10.00000,0.00000,2000.00000
130.00000,110.00000,10.00000,0.00000,2000.00000
130.00000,130.00000,10.00000,0.00000,2000.00000
130.00000,150.00000,10.00000,0.00000,2000.00000
130.00000,170.00000,10.00000,0.00000,2000.00000
130.00000,190.00000,10.00000,0.00000,2000.00000
130.00000,210.00000,10.00000,0.00000,2000.00000
130.00000,230.00000,10.00000,0.00000,2000.00000
130.00000,250.00000,10.00000,0.00000,2000.00000
130.00000,270.00000,10.00000,0.00000,2000.00000
130.00000,290.00000,10.00000,0.00000,2000.00000
130.00000,310.00000,10.00000,0.00000,2000.00000
130.00000,330.00000,10.00000,0.00000,2000.00000
130.00000,350.00000,10.00000,0.00000,2000.00000
130.00000,370.00000,10.00000,0.00000,2000.00000
130.00000,390.00000,10.00000,0.00000,2000.00000
130.00000,410.00000,10.00000,0.00000,2000.00000
130.00000,430.00000,10.00000,0.00000,2000.00000
130.00000,450.00000,10.00000,0.00000,2000.00000
130.00000,470.00000,10.00000,0.00000,2000.00000
130.00000,490.00000,10.00000,0.00000,2000.00000
130.00000,510.00000,10.00000,0.00000,2000.00000
130.00000,530.00000,10.00000,0.00000,2000.00000