TITLE = "data/convFD447.dat"
VARIABLES = "x","y","z","Wavefield","Velocity"
ZONE T = "Frame 447", I = 100, J = 1, K = 100
10.00000,10.00000,10.00000,-0.25422,2000.00000
30.00000,10.00000,10.00000,-0.14406,2000.00000
50.00000,10.00000,10.00000,0.16219,2000.00000
70.00000,10.00000,10.00000,0.23428,2000.00000
90.00000,10.00000,10.00000,0.00248,2000.00000
110.00000,10.00000,10.00000,-0.20401,2000.00000
130.00000,10.00000,10.00000,-0.15452,2000.00000
150.00000,10.00000,10.00000,0.04234,2000.00000
170.00000,10.00000,10.00000,0.16934,2000.00000
190.00000,10.00000,10.00000,0.13705,2000.00000
210.00000,10.00000,10.00000,-0.00171,2000.00000
230.00000,10.00000,10.00000,-0.12479,2000.00000
250.00000,10.00000,10.00000,-0.13922,2000.00000
270.00000,10.00000,10.00000,-0.05663,2000.00000
290.00000,10.00000,10.00000,0.04838,2000.00000
310.00000,10.00000,10.00000,0.11754,2000.00000
330.00000,10.00000,10.00000,0.12505,2000.00000
350.00000,10.00000,10.00000,0.07856,2000.00000
370.00000,10.00000,10.00000,0.01115,2000.00000
390.00000,10.00000,10.00000,-0.04982,2000.00000
410.00000,10.00000,10.00000,-0.08831,2000.00000
430.00000,10.00000,10.00000,-0.09656,2000.00000
450.00000,10.00000,10.00000,-0.08057,2000.00000
470.00000,10.00000,10.00000,-0.04928,2000.00000
490.00000,10.00000,10.00000,-0.01203,2000.00000
510.00000,10.00000,10.00000,0.02069,2000.00000
530.00000,10.00000,10.00000,0.04422,2000.00000
550.00000,10.00000,10.00000,0.05543,2000.00000
570.00000,10.00000,10.00000,0.05434,2000.00000
590.00000,10.00000,10.00000,0.04411,2000.00000
610.00000,10.00000,10.00000,0.02713,2000.00000
630.00000,10.00000,10.00000,0.00777,2000.00000
650.00000,10.00000,10.00000,-0.01140,2000.00000
670.00000,10.00000,10.00000,-0.02805,2000.00000
690.00000,10.00000,10.00000,-0.04060,2000.00000
710.00000,10.00000,10.00000,-0.04904,2000.00000
730.00000,10.00000,10.00000,-0.05289,2000.00000
750.00000,10.00000,10.00000,-0.05330,2000.00000
770.00000,10.00000,10.00000,-0.05053,2000.00000
790.00000,10.00000,10.00000,-0.04581,2000.00000
810.00000,10.00000,10.00000,-0.03969,2000.00000
830.00000,10.00000,10.00000,-0.03296,2000.00000
850.00000,10.00000,10.00000,-0.02620,2000.00000
870.00000,10.00000,10.00000,-0.01967,2000.00000
890.00000,10.00000,10.00000,-0.01387,2000.00000
910.00000,10.00000,10.00000,-0.00870,2000.00000
930.00000,10.00000,10.00000,-0.00459,2000.00000
950.00000,10.00000,10.00000,-0.00121,2000.00000
970.00000,10.00000,10.00000,0.00103,2000.00000
990.00000,10.00000,10.00000,0.00252,2000.00000
1010.00000,10.00000,10.00000,0.00289,2000.00000
1030.00000,10.00000,10.00000,0.00252,2000.00000
1050.00000,10.00000,10.00000,0.00103,2000.00000
1070.00000,10.00000,10.00000,-0.00121,2000.00000
1090.00000,10.00000,10.00000,-0.00459,2000.00000
1110.00000,10.00000,10.00000,-0.00870,2000.00000
1130.00000,10.00000,10.00000,-0.01387,2000.00000
1150.00000,10.00000,10.00000,-0.01967,2000.00000
1170.00000,10.00000,10.00000,-0.02620,2000.00000
1190.00000,10.00000,10.00000,-0.03296,2000.00000
1210.00000,10.00000,10.00000,-0.03969,2000.00000
1230.00000,10.00000,10.00000,-0.04581,2000.00000
1250.00000,10.00000,10.00000,-0.05053,2000.00000
1270.00000,10.00000,10.00000,-0.05330,2000.00000
1290.00000,10.00000,10.00000,-0.05289,2000.00000
1310.00000,10.00000,10.00000,-0.04905,2000.00000
1330.00000,10.00000,10.00000,-0.04061,2000.00000
1350.00000,10.00000,10.00000,-0.02808,2000.00000
1370.00000,10.00000,10.00000,-0.01149,2000.00000
1390.00000,10.00000,10.00000,0.00756,2000.00000
1410.00000,10.00000,10.00000,0.02663,2000.00000
1430.00000,10.00000,10.00000,0.04303,2000.00000
1450.00000,10.00000,10.00000,0.05215,2000.00000
1470.00000,10.00000,10.00000,0.05131,2000.00000
1490.00000,10.00000,10.00000,0.03714,2000.00000
1510.00000,10.00000,10.00000,0.00972,2000.00000
1530.00000,10.00000,10.00000,-0.02685,2000.00000
1550.00000,10.00000,10.00000,-0.06565,2000.00000
1570.00000,10.00000,10.00000,-0.09265,2000.00000
1590.00000,10.00000,10.00000,-0.09496,2000.00000
1610.00000,10.00000,10.00000,-0.06324,2000.00000
1630.00000,10.00000,10.00000,0.00186,2000.00000
1650.00000,10.00000,10.00000,0.07724,2000.00000
1670.00000,10.00000,10.00000,0.12855,2000.00000
1690.00000,10.00000,10.00000,0.12185,2000.00000
1710.00000,10.00000,10.00000,0.04535,2000.00000
1730.00000,10.00000,10.00000,-0.05987,2000.00000
1750.00000,10.00000,10.00000,-0.12385,2000.00000
1770.00000,10.00000,10.00000,-0.09911,2000.00000
1790.00000,10.00000,10.00000,0.00425,2000.00000
1810.00000,10.00000,10.00000,0.09986,2000.00000
1830.00000,10.00000,10.00000,0.09561,2000.00000
1850.00000,10.00000,10.00000,0.00984,2000.00000
1870.00000,10.00000,10.00000,-0.05898,2000.00000
1890.00000,10.00000,10.00000,-0.05987,2000.00000
1910.00000,10.00000,10.00000,-0.01211,2000.00000
1930.00000,10.00000,10.00000,0.03905,2000.00000
1950.00000,10.00000,10.00000,0.04191,2000.00000
1970.00000,10.00000,10.00000,-0.00822,2000.00000
1990.00000,10.00000,10.00000,-0.03746,2000.00000
10.00000,10.00000,30.00000,-0.14406,2000.00000
30.00000,10.00000,30.00000,-0.07528,2000.00000
50.00000,10.00000,30.00000,0.08885,2000.00000
70.00000,10.00000,30.00000,0.11272,2000.00000
90.00000,10.00000,30.00000,-0.00332,2000.00000
110.00000,10.00000,30.00000,-0.08779,2000.00000
130.00000,10.00000,30.00000,-0.06197,2000.00000
150.00000,10.00000,30.00000,0.02266,2000.00000
170.00000,10.00000,30.00000,0.08402,2000.00000
190.00000,10.00000,30.00000,0.06152,2000.00000
210.00000,10.00000,30.00000,-0.02759,2000.00000
230.00000,10.00000,30.00000,-0.08530,2000.00000
250.00000,10.00000,30.00000,-0.05535,2000.00000
270.00000,10.00000,30.00000,0.02043,2000.00000
290.00000,10.00000,30.00000,0.08237,2000.00000
310.00000,10.00000,30.00000,0.09805,2000.00000
330.00000,10.00000,30.00000,0.06306,2000.00000
350.00000,10.00000,30.00000,0.00975,2000.00000
370.00000,10.00000,30.00000,-0.02876,2000.00000
390.00000,10.00000,30.00000,-0.04533,2000.00000
410.00000,10.00000,30.00000,-0.04126,2000.00000
430.00000,10.00000,30.00000,-0.02806,2000.00000
450.00000,10.00000,30.00000,-0.01950,2000.00000
470.00000,10.00000,30.00000,-0.01723,2000.00000
490.00000,10.00000,30.00000,-0.02226,2000.00000
510.00000,10.00000,30.00000,-0.03094,2000.00000
530.00000,10.00000,30.00000,-0.03718,2000.00000
550.00000,10.00000,30.00000,-0.04014,2000.00000
570.00000,10.00000,30.00000,-0.03690,2000.00000
590.00000,10.00000,30.00000,-0.02873,2000.00000
610.00000,10.00000,30.00000,-0.01747,2000.00000
630.00000,10.00000,30.00000,-0.00402,2000.00000
650.00000,10.00000,30.00000,0.00834,2000.00000
670.00000,10.00000,30.00000,0.01958,2000.00000
690.00000,10.00000,30.00000,0.02778,2000.00000
710.00000,10.00000,30.00000,0.03315,2000.00000
730.00000,10.00000,30.00000,0.03570,2000.00000
750.00000,10.00000,30.00000,0.03543,2000.00000
770.00000,10.00000,30.00000,0.03355,2000.00000
790.00000,10.00000,30.00000,0.02976,2000.00000
810.00000,10.00000,30.00000,0.02555,2000.00000
830.00000,10.00000,30.00000,0.02047,2000.00000
850.00000,10.00000,30.00000,0.01575,2000.00000
870.00000,10.00000,30.00000,0.01095,2000.00000
890.00000,10.00000,30.00000,0.00685,2000.00000
910.00000,10.00000,30.00000,0.00311,2000.00000
930.00000,10.00000,30.00000,0.00016,2000.00000
950.00000,10.00000,30.00000,-0.00223,2000.00000
970.00000,10.00000,30.00000,-0.00388,2000.00000
990.00000,10.00000,30.00000,-0.00489,2000.00000
1010.00000,10.00000,30.00000,-0.00522,2000.00000
1030.00000,10.00000,30.00000,-0.00489,2000.00000
1050.00000,10.00000,30.00000,-0.00388,2000.00000
1070.00000,10.00000,30.00000,-0.00223,2000.00000
1090.00000,10.00000,30.00000,0.00016,2000.00000
1110.00000,10.00000,30.00000,0.00311,2000.00000
1130.00000,10.00000,30.00000,0.00685,2000.00000
1150.00000,10.00000,30.00000,0.01095,2000.00000
1170.00000,10.00000,30.00000,0.01575,2000.00000
1190.00000,10.00000,30.00000,0.02047,2000.00000
1210.00000,10.00000,30.00000,0.02555,2000.00000
1230.00000,10.00000,30.00000,0.02976,2000.00000
1250.00000,10.00000,30.00000,0.03355,2000.00000
1270.00000,10.00000,30.00000,0.03543,2000.00000
1290.00000,10.00000,30.00000,0.03570,2000.00000
1310.00000,10.00000,30.00000,0.03314,2000.00000
1330.00000,10.00000,30.00000,0.02775,2000.00000
1350.00000,10.00000,30.00000,0.01950,2000.00000
1370.00000,10.00000,30.00000,0.00814,2000.00000
1390.00000,10.00000,30.00000,-0.00451,2000.00000
1410.00000,10.00000,30.00000,-0.01858,2000.00000
1430.00000,10.00000,30.00000,-0.03109,2000.00000
1450.00000,10.00000,30.00000,-0.04159,2000.00000
1470.00000,10.00000,30.00000,-0.04875,2000.00000
1490.00000,10.00000,30.00000,-0.05162,2000.00000
1510.00000,10.00000,30.00000,-0.05267,2000.00000
1530.00000,10.00000,30.00000,-0.05064,2000.00000
1550.00000,10.00000,30.00000,-0.04715,2000.00000
1570.00000,10.00000,30.00000,-0.03940,2000.00000
1590.00000,10.00000,30.00000,-0.02081,2000.00000
1610.00000,10.00000,30.00000,0.00922,2000.00000
1630.00000,10.00000,30.00000,0.05056,2000.00000
1650.00000,10.00000,30.00000,0.08719,2000.00000
1670.00000,10.00000,30.00000,0.09150,2000.00000
1690.00000,10.00000,30.00000,0.05137,2000.00000
1710.00000,10.00000,30.00000,-0.02472,2000.00000
1730.00000,10.00000,30.00000,-0.08995,2000.00000
1750.00000,10.00000,30.00000,-0.07972,2000.00000
1770.00000,10.00000,30.00000,0.00732,2000.00000
1790.00000,10.00000,30.00000,0.09880,2000.00000
1810.00000,10.00000,30.00000,0.10840,2000.00000
1830.00000,10.00000,30.00000,0.00484,2000.00000
1850.00000,10.00000,30.00000,-0.11359,2000.00000
1870.00000,10.00000,30.00000,-0.09392,2000.00000
1890.00000,10.00000,30.00000,0.04332,2000.00000
1910.00000,10.00000,30.00000,0.10672,2000.00000
1930.00000,10.00000,30.00000,0.02665,2000.00000
1950.00000,10.00000,30.00000,-0.05465,2000.00000
1970.00000,10.00000,30.00000,-0.03525,2000.00000
1990.00000,10.00000,30.00000,0.00911,2000.00000
10.00000,10.00000,50.00000,0.16219,2000.00000
30.00000,10.00000,50.00000,0.08885,2000.00000
50.00000,10.00000,50.00000,-0.10611,2000.00000
70.00000,10.00000,50.00000,-0.13585,2000.00000
90.00000,10.00000,50.00000,0.02094,2000.00000
110.00000,10.00000,50.00000,0.11524,2000.00000
130.00000,10.00000,50.00000,0.04624,2000.00000
150.00000,10.00000,50.00000,-0.02848,2000.00000
170.00000,10.00000,50.00000,-0.01871,2000.00000
190.00000,10.00000,50.00000,-0.00643,2000.00000
210.00000,10.00000,50.00000,-0.02589,2000.00000
230.00000,10.00000,50.00000,-0.02781,2000.00000
250.00000,10.00000,50.00000,-0.00227,2000.00000
270.00000,10.00000,50.00000,0.03993,2000.00000
290.00000,10.00000,50.00000,0.08747,2000.00000
310.00000,10.00000,50.00000,0.09843,2000.00000
330.00000,10.00000,50.00000,0.06235,2000.00000
350.00000,10.00000,50.00000,0.01397,2000.00000
370.00000,10.00000,50.00000,-0.02927,2000.00000
390.00000,10.00000,50.00000,-0.05423,2000.00000
410.00000,10.00000,50.00000,-0.05395,2000.00000
430.00000,10.00000,50.00000,-0.04650,2000.00000
450.00000,10.00000,50.00000,-0.03869,2000.00000
470.00000,10.00000,50.00000,-0.03371,2000.00000
490.00000,10.00000,50.00000,-0.03704,2000.00000
510.00000,10.00000,50.00000,-0.04023,2000.00000
530.00000,10.00000,50.00000,-0.04267,2000.00000
550.00000,10.00000,50.00000,-0.04222,2000.00000
570.00000,10.00000,50.00000,-0.03549,2000.00000
590.00000,10.00000,50.00000,-0.02707,2000.00000
610.00000,10.00000,50.00000,-0.01505,2000.00000
630.00000,10.00000,50.00000,-0.00332,2000.00000
650.00000,10.00000,50.00000,0.00715,2000.00000
670.00000,10.00000,50.00000,0.01639,2000.00000
690.00000,10.00000,50.00000,0.02185,2000.00000
710.00000,10.00000,50.00000,0.02602,2000.00000
730.00000,10.00000,50.00000,0.02666,2000.00000
750.00000,10.00000,50.00000,0.02628,2000.00000
770.00000,10.00000,50.00000,0.02394,2000.00000
790.00000,10.00000,50.00000,0.02086,2000.00000
810.00000,10.00000,50.00000,0.01740,2000.00000
830.00000,10.00000,50.00000,0.01340,2000.00000
850.00000,10.00000,50.00000,0.01009,2000.00000
870.00000,10.00000,50.00000,0.00633,2000.00000
890.00000,10.00000,50.00000,0.00377,2000.00000
910.00000,10.00000,50.00000,0.00081,2000.00000
930.00000,10.00000,50.00000,-0.00082,2000.00000
950.00000,10.00000,50.00000,-0.00284,2000.00000
970.00000,10.00000,50.00000,-0.00353,2000.00000
990.00000,10.00000,50.00000,-0.00462,2000.00000
1010.00000,10.00000,50.00000,-0.00441,2000.00000
1030.00000,10.00000,50.00000,-0.00462,2000.00000
1050.00000,10.00000,50.00000,-0.00353,2000.00000
1070.00000,10.00000,50.00000,-0.00284,2000.00000
1090.00000,10.00000,50.00000,-0.00082,2000.00000
1110.00000,10.00000,50.00000,0.00081,2000.00000
1130.00000,10.00000,50.00000,0.00377,2000.00000
1150.00000,10.00000,50.00000,0.00633,2000.00000
1170.00000,10.00000,50.00000,0.01009,2000.00000
1190.00000,10.00000,50.00000,0.01340,2000.00000
1210.00000,10.00000,50.00000,0.01740,2000.00000
1230.00000,10.00000,50.00000,0.02086,2000.00000
1250.00000,10.00000,50.00000,0.02394,2000.00000
1270.00000,10.00000,50.00000,0.02628,2000.00000
1290.00000,10.00000,50.00000,0.02665,2000.00000
1310.00000,10.00000,50.00000,0.02600,2000.00000
1330.00000,10.00000,50.00000,0.02179,2000.00000
1350.00000,10.00000,50.00000,0.01623,2000.00000
1370.00000,10.00000,50.00000,0.00677,2000.00000
1390.00000,10.00000,50.00000,-0.00421,2000.00000
1410.00000,10.00000,50.00000,-0.01701,2000.00000
1430.00000,10.00000,50.00000,-0.03111,2000.00000
1450.00000,10.00000,50.00000,-0.04326,2000.00000
1470.00000,10.00000,50.00000,-0.05599,2000.00000
1490.00000,10.00000,50.00000,-0.06487,2000.00000
1510.00000,10.00000,50.00000,-0.07214,2000.00000
1530.00000,10.00000,50.00000,-0.07639,2000.00000
1550.00000,10.00000,50.00000,-0.07180,2000.00000
1570.00000,10.00000,50.00000,-0.05883,2000.00000
1590.00000,10.00000,50.00000,-0.02711,2000.00000
1610.00000,10.00000,50.00000,0.02119,2000.00000
1630.00000,10.00000,50.00000,0.07156,2000.00000
1650.00000,10.00000,50.00000,0.10859,2000.00000
1670.00000,10.00000,50.00000,0.09865,2000.00000
1690.00000,10.00000,50.00000,0.03666,2000.00000
1710.00000,10.00000,50.00000,-0.03799,2000.00000
1730.00000,10.00000,50.00000,-0.08091,2000.00000
1750.00000,10.00000,50.00000,-0.04515,2000.00000
1770.00000,10.00000,50.00000,0.05407,2000.00000
1790.00000,10.00000,50.00000,0.10822,2000.00000
1810.00000,10.00000,50.00000,0.05813,2000.00000
1830.00000,10.00000,50.00000,-0.04242,2000.00000
1850.00000,10.00000,50.00000,-0.10908,2000.00000
1870.00000,10.00000,50.00000,-0.06550,2000.00000
1890.00000,10.00000,50.00000,0.07190,2000.00000
1910.00000,10.00000,50.00000,0.12845,2000.00000
1930.00000,10.00000,50.00000,0.00978,2000.00000
1950.00000,10.00000,50.00000,-0.09858,2000.00000
1970.00000,10.00000,50.00000,-0.03467,2000.00000
1990.00000,10.00000,50.00000,0.05151,2000.00000
10.00000,10.00000,70.00000,0.23428,2000.00000
30.00000,10.00000,70.00000,0.11272,2000.00000
50.00000,10.00000,70.00000,-0.13585,2000.00000
70.00000,10.00000,70.00000,-0.13305,2000.00000
90.00000,10.00000,70.00000,0.03049,2000.00000
110.00000,10.00000,70.00000,0.06665,2000.00000
130.00000,10.00000,70.00000,0.00509,2000.00000
150.00000,10.00000,70.00000,0.01029,2000.00000
170.00000,10.00000,70.00000,0.04397,2000.00000
190.00000,10.00000,70.00000,0.02597,2000.00000
210.00000,10.00000,70.00000,-0.01299,2000.00000
230.00000,10.00000,70.00000,-0.05629,2000.00000
250.00000,10.00000,70.00000,-0.08198,2000.00000
270.00000,10.00000,70.00000,-0.02065,2000.00000
290.00000,10.00000,70.00000,0.09722,2000.00000
310.00000,10.00000,70.00000,0.17148,2000.00000
330.00000,10.00000,70.00000,0.17570,2000.00000
350.00000,10.00000,70.00000,0.11025,2000.00000
370.00000,10.00000,70.00000,-0.00442,2000.00000
390.00000,10.00000,70.00000,-0.10219,2000.00000
410.00000,10.00000,70.00000,-0.15787,2000.00000
430.00000,10.00000,70.00000,-0.17111,2000.00000
450.00000,10.00000,70.00000,-0.13846,2000.00000
470.00000,10.00000,70.00000,-0.08912,2000.00000
490.00000,10.00000,70.00000,-0.03730,2000.00000
510.00000,10.00000,70.00000,0.00935,2000.00000
530.00000,10.00000,70.00000,0.03556,2000.00000
550.00000,10.00000,70.00000,0.04887,2000.00000
570.00000,10.00000,70.00000,0.04633,2000.00000
590.00000,10.00000,70.00000,0.03239,2000.00000
610.00000,10.00000,70.00000,0.01527,2000.00000
630.00000,10.00000,70.00000,-0.00689,2000.00000
650.00000,10.00000,70.00000,-0.02451,2000.00000
670.00000,10.00000,70.00000,-0.04053,2000.00000
690.00000,10.00000,70.00000,-0.05100,2000.00000
710.00000,10.00000,70.00000,-0.05620,2000.00000
730.00000,10.00000,70.00000,-0.05819,2000.00000
750.00000,10.00000,70.00000,-0.05457,2000.00000
770.00000,10.00000,70.00000,-0.05040,2000.00000
790.00000,10.00000,70.00000,-0.04223,2000.00000
810.00000,10.00000,70.00000,-0.03513,2000.00000
830.00000,10.00000,70.00000,-0.02609,2000.00000
850.00000,10.00000,70.00000,-0.01865,2000.00000
870.00000,10.00000,70.00000,-0.01092,2000.00000
890.00000,10.00000,70.00000,-0.00462,2000.00000
910.00000,10.00000,70.00000,0.00094,2000.00000
930.00000,10.00000,70.00000,0.00548,2000.00000
950.00000,10.00000,70.00000,0.00876,2000.00000
970.00000,10.00000,70.00000,0.01141,2000.00000
990.00000,10.00000,70.00000,0.01258,2000.00000
1010.00000,10.00000,70.00000,0.01335,2000.00000
1030.00000,10.00000,70.00000,0.01258,2000.00000
1050.00000,10.00000,70.00000,0.01141,2000.00000
1070.00000,10.00000,70.00000,0.00876,2000.00000
1090.00000,10.00000,70.00000,0.00548,2000.00000
1110.00000,10.00000,70.00000,0.00094,2000.00000
1130.00000,10.00000,70.00000,-0.00462,2000.00000
1150.00000,10.00000,70.00000,-0.01092,2000.00000
1170.00000,10.00000,70.00000,-0.01865,2000.00000
1190.00000,10.00000,70.00000,-0.02609,2000.00000
1210.00000,10.00000,70.00000,-0.03513,2000.00000
1230.00000,10.00000,70.00000,-0.04223,2000.00000
1250.00000,10.00000,70.00000,-0.05040,2000.00000
1270.00000,10.00000,70.00000,-0.05457,2000.00000
1290.00000,10.00000,70.00000,-0.05821,2000.00000
1310.00000,10.00000,70.00000,-0.05624,2000.00000
1330.00000,10.00000,70.00000,-0.05111,2000.00000
1350.00000,10.00000,70.00000,-0.04081,2000.00000
1370.00000,10.00000,70.00000,-0.02517,2000.00000
1390.00000,10.00000,70.00000,-0.00838,2000.00000
1410.00000,10.00000,70.00000,0.01209,2000.00000
1430.00000,10.00000,70.00000,0.02606,2000.00000
1450.00000,10.00000,70.00000,0.03467,2000.00000
1470.00000,10.00000,70.00000,0.02914,2000.00000
1490.00000,10.00000,70.00000,0.00537,2000.00000
1510.00000,10.00000,70.00000,-0.03142,2000.00000
1530.00000,10.00000,70.00000,-0.08358,2000.00000
1550.00000,10.00000,70.00000,-0.12804,2000.00000
1570.00000,10.00000,70.00000,-0.14968,2000.00000
1590.00000,10.00000,70.00000,-0.13328,2000.00000
1610.00000,10.00000,70.00000,-0.06191,2000.00000
1630.00000,10.00000,70.00000,0.03397,2000.00000
1650.00000,10.00000,70.00000,0.12342,2000.00000
1670.00000,10.00000,70.00000,0.17025,2000.00000
1690.00000,10.00000,70.00000,0.13679,2000.00000
1710.00000,10.00000,70.00000,0.06263,2000.00000
1730.00000,10.00000,70.00000,-0.00558,2000.00000
1750.00000,10.00000,70.00000,-0.05635,2000.00000
1770.00000,10.00000,70.00000,-0.06108,2000.00000
1790.00000,10.00000,70.00000,-0.04096,2000.00000
1810.00000,10.00000,70.00000,-0.02852,2000.00000
1830.00000,10.00000,70.00000,0.03379,2000.00000
1850.00000,10.00000,70.00000,0.11992,2000.00000
1870.00000,10.00000,70.00000,0.07704,2000.00000
1890.00000,10.00000,70.00000,-0.06625,2000.00000
1910.00000,10.00000,70.00000,-0.10424,2000.00000
1930.00000,10.00000,70.00000,-0.01123,2000.00000
1950.00000,10.00000,70.00000,0.05457,2000.00000
1970.00000,10.00000,70.00000,0.03666,2000.00000
1990.00000,10.00000,70.00000,0.00543,2000.00000
10.00000,10.00000,90.00000,0.00248,2000.00000
30.00000,10.00000,90.00000,-0.00332,2000.00000
50.00000,10.00000,90.00000,0.02094,2000.00000
70.00000,10.00000,90.00000,0.03049,2000.00000
90.00000,10.00000,90.00000,-0.03226,2000.00000
110.00000,10.00000,90.00000,-0.05509,2000.00000
130.00000,10.00000,90.00000,0.03563,2000.00000
150.00000,10.00000,90.00000,0.07616,2000.00000
170.00000,10.00000,90.00000,-0.00552,2000.00000
190.00000,10.00000,90.00000,-0.03816,2000.00000
210.00000,10.00000,90.00000,0.01103,2000.00000
230.00000,10.00000,90.00000,0.00907,2000.00000
250.00000,10.00000,90.00000,-0.01219,2000.00000
270.00000,10.00000,90.00000,0.02494,2000.00000
290.00000,10.00000,90.00000,0.06818,2000.00000
310.00000,10.00000,90.00000,0.10280,2000.00000
330.00000,10.00000,90.00000,0.12549,2000.00000
350.00000,10.00000,90.00000,0.07968,2000.00000
370.00000,10.00000,90.00000,-0.00025,2000.00000
390.00000,10.00000,90.00000,-0.06456,2000.00000
410.00000,10.00000,90.00000,-0.11858,2000.00000
430.00000,10.00000,90.00000,-0.13209,2000.00000
450.00000,10.00000,90.00000,-0.11431,2000.00000
470.00000,10.00000,90.00000,-0.09417,2000.00000
490.00000,10.00000,90.00000,-0.06188,2000.00000
510.00000,10.00000,90.00000,-0.04014,2000.00000
530.00000,10.00000,90.00000,-0.02670,2000.00000
550.00000,10.00000,90.00000,-0.01310,2000.00000
570.00000,10.00000,90.00000,-0.01130,2000.00000
590.00000,10.00000,90.00000,-0.00477,2000.00000
610.00000,10.00000,90.00000,-0.00265,2000.00000
630.00000,10.00000,90.00000,-0.00076,2000.00000
650.00000,10.00000,90.00000,0.00396,2000.00000
670.00000,10.00000,90.00000,0.00343,2000.00000
690.00000,10.00000,90.00000,0.00779,2000.00000
710.00000,10.00000,90.00000,0.00651,2000.00000
730.00000,10.00000,90.00000,0.00815,2000.00000
750.00000,10.00000,90.00000,0.00700,2000.00000
770.00000,10.00000,90.00000,0.00573,2000.00000
790.00000,10.00000,90.00000,0.00502,2000.00000
810.00000,10.00000,90.00000,0.00192,2000.00000
830.00000,10.00000,90.00000,0.00165,2000.00000
850.00000,10.00000,90.00000,-0.00205,2000.00000
870.00000,10.00000,90.00000,-0.00193,2000.00000
890.00000,10.00000,90.00000,-0.00540,2000.00000
910.00000,10.00000,90.00000,-0.00493,2000.00000
930.00000,10.00000,90.00000,-0.00780,2000.00000
950.00000,10.00000,90.00000,-0.00699,2000.00000
970.00000,10.00000,90.00000,-0.00920,2000.00000
990.00000,10.00000,90.00000,-0.00802,2000.00000
1010.00000,10.00000,90.00000,-0.00966,2000.00000
1030.00000,10.00000,90.00000,-0.00802,2000.00000
1050.00000,10.00000,90.00000,-0.00920,2000.00000
1070.00000,10.00000,90.00000,-0.00699,2000.00000
1090.00000,10.00000,90.00000,-0.00780,2000.00000
1110.00000,10.00000,90.00000,-0.00493,2000.00000
1130.00000,10.00000,90.00000,-0.00540,2000.00000
1150.00000,10.00000,90.00000,-0.00193,2000.00000
1170.00000,10.00000,90.00000,-0.00205,2000.00000
1190.00000,10.00000,90.00000,0.00165,2000.00000
1210.00000,10.00000,90.00000,0.00192,2000.00000
1230.00000,10.00000,90.00000,0.00502,2000.00000
1250.00000,10.00000,90.00000,0.00573,2000.00000
1270.00000,10.00000,90.00000,0.00699,2000.00000
1290.00000,10.00000,90.00000,0.00812,2000.00000
1310.00000,10.00000,90.00000,0.00643,2000.00000
1330.00000,10.00000,90.00000,0.00760,2000.00000
1350.00000,10.00000,90.00000,0.00296,2000.00000
1370.00000,10.00000,90.00000,0.00286,2000.00000
1390.00000,10.00000,90.00000,-0.00315,2000.00000
1410.00000,10.00000,90.00000,-0.00755,2000.00000
1430.00000,10.00000,90.00000,-0.01412,2000.00000
1450.00000,10.00000,90.00000,-0.02775,2000.00000
1470.00000,10.00000,90.00000,-0.03950,2000.00000
1490.00000,10.00000,90.00000,-0.06465,2000.00000
1510.00000,10.00000,90.00000,-0.08745,2000.00000
1530.00000,10.00000,90.00000,-0.10966,2000.00000
1550.00000,10.00000,90.00000,-0.12557,2000.00000
1570.00000,10.00000,90.00000,-0.10803,2000.00000
1590.00000,10.00000,90.00000,-0.07259,2000.00000
1610.00000,10.00000,90.00000,-0.01019,2000.00000
1630.00000,10.00000,90.00000,0.06019,2000.00000
1650.00000,10.00000,90.00000,0.09042,2000.00000
1670.00000,10.00000,90.00000,0.09940,2000.00000
1690.00000,10.00000,90.00000,0.08382,2000.00000
1710.00000,10.00000,90.00000,0.05433,2000.00000
1730.00000,10.00000,90.00000,0.06131,2000.00000
1750.00000,10.00000,90.00000,0.04238,2000.00000
1770.00000,10.00000,90.00000,-0.04353,2000.00000
1790.00000,10.00000,90.00000,-0.10132,2000.00000
1810.00000,10.00000,90.00000,-0.08712,2000.00000
1830.00000,10.00000,90.00000,0.00964,2000.00000
1850.00000,10.00000,90.00000,0.17501,2000.00000
1870.00000,10.00000,90.00000,0.18863,2000.00000
1890.00000,10.00000,90.00000,-0.06967,2000.00000
1910.00000,10.00000,90.00000,-0.24887,2000.00000
1930.00000,10.00000,90.00000,-0.06504,2000.00000
1950.00000,10.00000,90.00000,0.16459,2000.00000
1970.00000,10.00000,90.00000,0.09646,2000.00000
1990.00000,10.00000,90.00000,-0.05082,2000.00000
10.00000,10.00000,110.00000,-0.20401,2000.00000
30.00000,10.00000,110.00000,-0.08779,2000.00000
50.00000,10.00000,110.00000,0.11524,2000.00000
70.00000,10.00000,110.00000,0.06665,2000.00000
90.00000,10.00000,110.00000,-0.05509,2000.00000
110.00000,10.00000,110.00000,0.04328,2000.00000
130.00000,10.00000,110.00000,0.14166,2000.00000
150.00000,10.00000,110.00000,-0.03064,2000.00000
170.00000,10.00000,110.00000,-0.20227,2000.00000
190.00000,10.00000,110.00000,-0.10015,2000.00000
210.00000,10.00000,110.00000,0.07740,2000.00000
230.00000,10.00000,110.00000,0.15423,2000.00000
250.00000,10.00000,110.00000,0.17019,2000.00000
270.00000,10.00000,110.00000,0.09347,2000.00000
290.00000,10.00000,110.00000,-0.02456,2000.00000
310.00000,10.00000,110.00000,-0.03756,2000.00000
330.00000,10.00000,110.00000,-0.00353,2000.00000
350.00000,10.00000,110.00000,0.00859,2000.00000
370.00000,10.00000,110.00000,0.03122,2000.00000
390.00000,10.00000,110.00000,0.01294,2000.00000
410.00000,10.00000,110.00000,-0.03313,2000.00000
430.00000,10.00000,110.00000,-0.05459,2000.00000
450.00000,10.00000,110.00000,-0.08787,2000.00000
470.00000,10.00000,110.00000,-0.10475,2000.00000
490.00000,10.00000,110.00000,-0.10239,2000.00000
510.00000,10.00000,110.00000,-0.10843,2000.00000
530.00000,10.00000,110.00000,-0.09080,2000.00000
550.00000,10.00000,110.00000,-0.07558,2000.00000
570.00000,10.00000,110.00000,-0.05635,2000.00000
590.00000,10.00000,110.00000,-0.02683,2000.00000
610.00000,10.00000,110.00000,-0.00985,2000.00000
630.00000,10.00000,110.00000,0.01621,2000.00000
650.00000,10.00000,110.00000,0.02909,2000.00000
670.00000,10.00000,110.00000,0.04073,2000.00000
690.00000,10.00000,110.00000,0.04797,2000.00000
710.00000,10.00000,110.00000,0.04564,2000.00000
730.00000,10.00000,110.00000,0.04703,2000.00000
750.00000,10.00000,110.00000,0.03700,2000.00000
770.00000,10.00000,110.00000,0.03388,2000.00000
790.00000,10.00000,110.00000,0.02229,2000.00000
810.00000,10.00000,110.00000,0.01665,2000.00000
830.00000,10.00000,110.00000,0.00711,2000.00000
850.00000,10.00000,110.00000,0.00075,2000.00000
870.00000,10.00000,110.00000,-0.00551,2000.00000
890.00000,10.00000,110.00000,-0.01145,2000.00000
910.00000,10.00000,110.00000,-0.01460,2000.00000
930.00000,10.00000,110.00000,-0.01958,2000.00000
950.00000,10.00000,110.00000,-0.02025,2000.00000
970.00000,10.00000,110.00000,-0.02408,2000.00000
990.00000,10.00000,110.00000,-0.02291,2000.00000
1010.00000,10.00000,110.00000,-0.02551,2000.00000
1030.00000,10.00000,110.00000,-0.02291,2000.00000
1050.00000,10.00000,110.00000,-0.02408,2000.00000
1070.00000,10.00000,110.00000,-0.02025,2000.00000
1090.00000,10.00000,110.00000,-0.01958,2000.00000
1110.00000,10.00000,110.00000,-0.01460,2000.00000
1130.00000,10.00000,110.00000,-0.01145,2000.00000
1150.00000,10.00000,110.00000,-0.00551,2000.00000
1170.00000,10.00000,110.00000,0.00075,2000.00000
1190.00000,10.00000,110.00000,0.00711,2000.00000
1210.00000,10.00000,110.00000,0.01665,2000.00000
1230.00000,10.00000,110.00000,0.02228,2000.00000
1250.00000,10.00000,110.00000,0.03387,2000.00000
1270.00000,10.00000,110.00000,0.03698,2000.00000
1290.00000,10.00000,110.00000,0.04699,2000.00000
1310.00000,10.00000,110.00000,0.04551,2000.00000
1330.00000,10.00000,110.00000,0.04764,2000.00000
1350.00000,10.00000,110.00000,0.03995,2000.00000
1370.00000,10.00000,110.00000,0.02734,2000.00000
1390.00000,10.00000,110.00000,0.01252,2000.00000
1410.00000,10.00000,110.00000,-0.01710,2000.00000
1430.00000,10.00000,110.00000,-0.04005,2000.00000
1450.00000,10.00000,110.00000,-0.07847,2000.00000
1470.00000,10.00000,110.00000,-0.10902,2000.00000
1490.00000,10.00000,110.00000,-0.13544,2000.00000
1510.00000,10.00000,110.00000,-0.15872,2000.00000
1530.00000,10.00000,110.00000,-0.14519,2000.00000
1550.00000,10.00000,110.00000,-0.12057,2000.00000
1570.00000,10.00000,110.00000,-0.05833,2000.00000
1590.00000,10.00000,110.00000,0.02467,2000.00000
1610.00000,10.00000,110.00000,0.07487,2000.00000
1630.00000,10.00000,110.00000,0.10635,2000.00000
1650.00000,10.00000,110.00000,0.06950,2000.00000
1670.00000,10.00000,110.00000,-0.01026,2000.00000
1690.00000,10.00000,110.00000,-0.03031,2000.00000
1710.00000,10.00000,110.00000,-0.01152,2000.00000
1730.00000,10.00000,110.00000,0.05473,2000.00000
1750.00000,10.00000,110.00000,0.13976,2000.00000
1770.00000,10.00000,110.00000,0.09072,2000.00000
1790.00000,10.00000,110.00000,-0.02381,2000.00000
1810.00000,10.00000,110.00000,-0.04154,2000.00000
1830.00000,10.00000,110.00000,-0.04055,2000.00000
1850.00000,10.00000,110.00000,-0.04291,2000.00000
1870.00000,10.00000,110.00000,0.04218,2000.00000
1890.00000,10.00000,110.00000,0.08432,2000.00000
1910.00000,10.00000,110.00000,-0.01154,2000.00000
1930.00000,10.00000,110.00000,-0.04945,2000.00000
1950.00000,10.00000,110.00000,0.02510,2000.00000
1970.00000,10.00000,110.00000,0.02278,2000.00000
1990.00000,10.00000,110.00000,-0.03603,2000.00000
10.00000,10.00000,130.00000,-0.15452,2000.00000
30.00000,10.00000,130.00000,-0.06197,2000.00000
50.00000,10.00000,130.00000,0.04624,2000.00000
70.00000,10.00000,130.00000,0.00509,2000.00000
90.00000,10.00000,130.00000,0.03563,2000.00000
110.00000,10.00000,130.00000,0.14166,2000.00000
130.00000,10.00000,130.00000,0.04446,2000.00000
150.00000,10.00000,130.00000,-0.14290,2000.00000
170.00000,10.00000,130.00000,-0.11488,2000.00000
190.00000,10.00000,130.00000,-0.00064,2000.00000
210.00000,10.00000,130.00000,0.03760,2000.00000
230.00000,10.00000,130.00000,0.12620,2000.00000
250.00000,10.00000,130.00000,0.18282,2000.00000
270.00000,10.00000,130.00000,0.07091,2000.00000
290.00000,10.00000,130.00000,-0.00742,2000.00000
310.00000,10.00000,130.00000,0.01151,2000.00000
330.00000,10.00000,130.00000,0.00275,2000.00000
350.00000,10.00000,130.00000,0.02191,2000.00000
370.00000,10.00000,130.00000,0.02845,2000.00000
390.00000,10.00000,130.00000,-0.04858,2000.00000