TITLE = "data/convFD335.dat"
VARIABLES = "x","y","z","Wavefield","Velocity"
ZONE T = "Frame 335", I = 100, J = 1, K = 100
10.00000,10.00000,10.00000,0.00118,2000.00000
30.00000,10.00000,10.00000,0.00300,2000.00000
50.00000,10.00000,10.00000,0.00620,2000.00000
70.00000,10.00000,10.00000,0.01168,2000.00000
90.00000,10.00000,10.00000,0.02028,2000.00000
110.00000,10.00000,10.00000,0.03234,2000.00000
130.00000,10.00000,10.00000,0.04693,2000.00000
150.00000,10.00000,10.00000,0.06104,2000.00000
170.00000,10.00000,10.00000,0.06936,2000.00000
190.00000,10.00000,10.00000,0.06530,2000.00000
210.00000,10.00000,10.00000,0.04357,2000.00000
230.00000,10.00000,10.00000,0.00381,2000.00000
250.00000,10.00000,10.00000,-0.04681,2000.00000
270.00000,10.00000,10.00000,-0.09407,2000.00000
290.00000,10.00000,10.00000,-0.12131,2000.00000
310.00000,10.00000,10.00000,-0.11661,2000.00000
330.00000,10.00000,10.00000,-0.07886,2000.00000
350.00000,10.00000,10.00000,-0.01909,2000.00000
370.00000,10.00000,10.00000,0.04361,2000.00000
390.00000,10.00000,10.00000,0.08962,2000.00000
410.00000,10.00000,10.00000,0.10594,2000.00000
430.00000,10.00000,10.00000,0.08995,2000.00000
450.00000,10.00000,10.00000,0.04891,2000.00000
470.00000,10.00000,10.00000,-0.00380,2000.00000
490.00000,10.00000,10.00000,-0.05360,2000.00000
510.00000,10.00000,10.00000,-0.08896,2000.00000
530.00000,10.00000,10.00000,-0.10370,2000.00000
550.00000,10.00000,10.00000,-0.09734,2000.00000
570.00000,10.00000,10.00000,-0.07386,2000.00000
590.00000,10.00000,10.00000,-0.03981,2000.00000
610.00000,10.00000,10.00000,-0.00227,2000.00000
630.00000,10.00000,10.00000,0.03260,2000.00000
650.00000,10.00000,10.00000,0.06046,2000.00000
670.00000,10.00000,10.00000,0.07898,2000.00000
690.00000,10.00000,10.00000,0.08769,2000.00000
710.00000,10.00000,10.00000,0.08746,2000.00000
730.00000,10.00000,10.00000,0.08002,2000.00000
750.00000,10.00000,10.00000,0.06743,2000.00000
770.00000,10.00000,10.00000,0.05175,2000.00000
790.00000,10.00000,10.00000,0.03475,2000.00000
810.00000,10.00000,10.00000,0.01784,2000.00000
830.00000,10.00000,10.00000,0.00202,2000.00000
850.00000,10.00000,10.00000,-0.01211,2000.00000
870.00000,10.00000,10.00000,-0.02424,2000.00000
890.00000,10.00000,10.00000,-0.03428,2000.00000
910.00000,10.00000,10.00000,-0.04232,2000.00000
930.00000,10.00000,10.00000,-0.04853,2000.00000
950.00000,10.00000,10.00000,-0.05308,2000.00000
970.00000,10.00000,10.00000,-0.05619,2000.00000
990.00000,10.00000,10.00000,-0.05798,2000.00000
1010.00000,10.00000,10.00000,-0.05857,2000.00000
1030.00000,10.00000,10.00000,-0.05798,2000.00000
1050.00000,10.00000,10.00000,-0.05619,2000.00000
1070.00000,10.00000,10.00000,-0.05309,2000.00000
1090.00000,10.00000,10.00000,-0.04853,2000.00000
1110.00000,10.00000,10.00000,-0.04232,2000.00000
1130.00000,10.00000,10.00000,-0.03428,2000.00000
1150.00000,10.00000,10.00000,-0.02424,2000.00000
1170.00000,10.00000,10.00000,-0.01211,2000.00000
1190.00000,10.00000,10.00000,0.00202,2000.00000
1210.00000,10.00000,10.00000,0.01784,2000.00000
1230.00000,10.00000,10.00000,0.03475,2000.00000
1250.00000,10.00000,10.00000,0.05175,2000.00000
1270.00000,10.00000,10.00000,0.06743,2000.00000
1290.00000,10.00000,10.00000,0.08002,2000.00000
1310.00000,10.00000,10.00000,0.08746,2000.00000
1330.00000,10.00000,10.00000,0.08769,2000.00000
1350.00000,10.00000,10.00000,0.07898,2000.00000
1370.00000,10.00000,10.00000,0.06046,2000.00000
1390.00000,10.00000,10.00000,0.03260,2000.00000
1410.00000,10.00000,10.00000,-0.00227,2000.00000
1430.00000,10.00000,10.00000,-0.03981,2000.00000
1450.00000,10.00000,10.00000,-0.07386,2000.00000
1470.00000,10.00000,10.00000,-0.09734,2000.00000
1490.00000,10.00000,10.00000,-0.10370,2000.00000
1510.00000,10.00000,10.00000,-0.08896,2000.00000
1530.00000,10.00000,10.00000,-0.05360,2000.00000
1550.00000,10.00000,10.00000,-0.00380,2000.00000
1570.00000,10.00000,10.00000,0.04891,2000.00000
1590.00000,10.00000,10.00000,0.08995,2000.00000
1610.00000,10.00000,10.00000,0.10594,2000.00000
1630.00000,10.00000,10.00000,0.08962,2000.00000
1650.00000,10.00000,10.00000,0.04361,2000.00000
1670.00000,10.00000,10.00000,-0.01909,2000.00000
1690.00000,10.00000,10.00000,-0.07886,2000.00000
1710.00000,10.00000,10.00000,-0.11661,2000.00000
1730.00000,10.00000,10.00000,-0.12131,2000.00000
1750.00000,10.00000,10.00000,-0.09407,2000.00000
1770.00000,10.00000,10.00000,-0.04681,2000.00000
1790.00000,10.00000,10.00000,0.00381,2000.00000
1810.00000,10.00000,10.00000,0.04357,2000.00000
1830.00000,10.00000,10.00000,0.06530,2000.00000
1850.00000,10.00000,10.00000,0.06936,2000.00000
1870.00000,10.00000,10.00000,0.06104,2000.00000
1890.00000,10.00000,10.00000,0.04692,2000.00000
1910.00000,10.00000,10.00000,0.03233,2000.00000
1930.00000,10.00000,10.00000,0.02025,2000.00000
1950.00000,10.00000,10.00000,0.01159,2000.00000
1970.00000,10.00000,10.00000,0.00598,2000.00000
1990.00000,10.00000,10.00000,0.00247,2000.00000
10.00000,10.00000,30.00000,0.00300,2000.00000
30.00000,10.00000,30.00000,0.00742,2000.00000
50.00000,10.00000,30.00000,0.01481,2000.00000
70.00000,10.00000,30.00000,0.02678,2000.00000
90.00000,10.00000,30.00000,0.04449,2000.00000
110.00000,10.00000,30.00000,0.06762,2000.00000
130.00000,10.00000,30.00000,0.09307,2000.00000
150.00000,10.00000,30.00000,0.11405,2000.00000
170.00000,10.00000,30.00000,0.12071,2000.00000
190.00000,10.00000,30.00000,0.10322,2000.00000
210.00000,10.00000,30.00000,0.05683,2000.00000
230.00000,10.00000,30.00000,-0.01316,2000.00000
250.00000,10.00000,30.00000,-0.09014,2000.00000
270.00000,10.00000,30.00000,-0.15078,2000.00000
290.00000,10.00000,30.00000,-0.17456,2000.00000
310.00000,10.00000,30.00000,-0.15321,2000.00000
330.00000,10.00000,30.00000,-0.09479,2000.00000
350.00000,10.00000,30.00000,-0.01997,2000.00000
370.00000,10.00000,30.00000,0.04701,2000.00000
390.00000,10.00000,30.00000,0.08774,2000.00000
410.00000,10.00000,30.00000,0.09498,2000.00000
430.00000,10.00000,30.00000,0.07286,2000.00000
450.00000,10.00000,30.00000,0.03301,2000.00000
470.00000,10.00000,30.00000,-0.01071,2000.00000
490.00000,10.00000,30.00000,-0.04676,2000.00000
510.00000,10.00000,30.00000,-0.06835,2000.00000
530.00000,10.00000,30.00000,-0.07380,2000.00000
550.00000,10.00000,30.00000,-0.06545,2000.00000
570.00000,10.00000,30.00000,-0.04789,2000.00000
590.00000,10.00000,30.00000,-0.02621,2000.00000
610.00000,10.00000,30.00000,-0.00486,2000.00000
630.00000,10.00000,30.00000,0.01308,2000.00000
650.00000,10.00000,30.00000,0.02595,2000.00000
670.00000,10.00000,30.00000,0.03337,2000.00000
690.00000,10.00000,30.00000,0.03582,2000.00000
710.00000,10.00000,30.00000,0.03430,2000.00000
730.00000,10.00000,30.00000,0.02997,2000.00000
750.00000,10.00000,30.00000,0.02396,2000.00000
770.00000,10.00000,30.00000,0.01721,2000.00000
790.00000,10.00000,30.00000,0.01042,2000.00000
810.00000,10.00000,30.00000,0.00408,2000.00000
830.00000,10.00000,30.00000,-0.00153,2000.00000
850.00000,10.00000,30.00000,-0.00631,2000.00000
870.00000,10.00000,30.00000,-0.01022,2000.00000
890.00000,10.00000,30.00000,-0.01332,2000.00000
910.00000,10.00000,30.00000,-0.01572,2000.00000
930.00000,10.00000,30.00000,-0.01750,2000.00000
950.00000,10.00000,30.00000,-0.01877,2000.00000
970.00000,10.00000,30.00000,-0.01962,2000.00000
990.00000,10.00000,30.00000,-0.02010,2000.00000
1010.00000,10.00000,30.00000,-0.02025,2000.00000
1030.00000,10.00000,30.00000,-0.02010,2000.00000
1050.00000,10.00000,30.00000,-0.01962,2000.00000
1070.00000,10.00000,30.00000,-0.01877,2000.00000
1090.00000,10.00000,30.00000,-0.01750,2000.00000
1110.00000,10.00000,30.00000,-0.01572,2000.00000
1130.00000,10.00000,30.00000,-0.01332,2000.00000
1150.00000,10.00000,30.00000,-0.01022,2000.00000
1170.00000,10.00000,30.00000,-0.00631,2000.00000
1190.00000,10.00000,30.00000,-0.00153,2000.00000
1210.00000,10.00000,30.00000,0.00408,2000.00000
1230.00000,10.00000,30.00000,0.01042,2000.00000
1250.00000,10.00000,30.00000,0.01721,2000.00000
1270.00000,10.00000,30.00000,0.02396,2000.00000
1290.00000,10.00000,30.00000,0.02997,2000.00000
1310.00000,10.00000,30.00000,0.03430,2000.00000
1330.00000,10.00000,30.00000,0.03582,2000.00000
1350.00000,10.00000,30.00000,0.03337,2000.00000
1370.00000,10.00000,30.00000,0.02595,2000.00000
1390.00000,10.00000,30.00000,0.01308,2000.00000
1410.00000,10.00000,30.00000,-0.00486,2000.00000
1430.00000,10.00000,30.00000,-0.02621,2000.00000
1450.00000,10.00000,30.00000,-0.04789,2000.00000
1470.00000,10.00000,30.00000,-0.06545,2000.00000
1490.00000,10.00000,30.00000,-0.07380,2000.00000
1510.00000,10.00000,30.00000,-0.06835,2000.00000
1530.00000,10.00000,30.00000,-0.04676,2000.00000
1550.00000,10.00000,30.00000,-0.01071,2000.00000
1570.00000,10.00000,30.00000,0.03301,2000.00000
1590.00000,10.00000,30.00000,0.07286,2000.00000
1610.00000,10.00000,30.00000,0.09498,2000.00000
1630.00000,10.00000,30.00000,0.08774,2000.00000
1650.00000,10.00000,30.00000,0.04701,2000.00000
1670.00000,10.00000,30.00000,-0.01997,2000.00000
1690.00000,10.00000,30.00000,-0.09479,2000.00000
1710.00000,10.00000,30.00000,-0.15321,2000.00000
1730.00000,10.00000,30.00000,-0.17456,2000.00000
1750.00000,10.00000,30.00000,-0.15078,2000.00000
1770.00000,10.00000,30.00000,-0.09014,2000.00000
1790.00000,10.00000,30.00000,-0.01316,2000.00000
1810.00000,10.00000,30.00000,0.05683,2000.00000
1830.00000,10.00000,30.00000,0.10322,2000.00000
1850.00000,10.00000,30.00000,0.12071,2000.00000
1870.00000,10.00000,30.00000,0.11404,2000.00000
1890.00000,10.00000,30.00000,0.09306,2000.00000
1910.00000,10.00000,30.00000,0.06758,2000.00000
1930.00000,10.00000,30.00000,0.04439,2000.00000
1950.00000,10.00000,30.00000,0.02653,2000.00000
1970.00000,10.00000,30.00000,0.01420,2000.00000
1990.00000,10.00000,30.00000,0.00603,2000.00000
10.00000,10.00000,50.00000,0.00620,2000.00000
30.00000,10.00000,50.00000,0.01481,2000.00000
50.00000,10.00000,50.00000,0.02814,2000.00000
70.00000,10.00000,50.00000,0.04802,2000.00000
90.00000,10.00000,50.00000,0.07473,2000.00000
110.00000,10.00000,50.00000,0.10552,2000.00000
130.00000,10.00000,50.00000,0.13346,2000.00000
150.00000,10.00000,50.00000,0.14789,2000.00000
170.00000,10.00000,50.00000,0.13762,2000.00000
190.00000,10.00000,50.00000,0.09665,2000.00000
210.00000,10.00000,50.00000,0.02969,2000.00000
230.00000,10.00000,50.00000,-0.04650,2000.00000
250.00000,10.00000,50.00000,-0.10876,2000.00000
270.00000,10.00000,50.00000,-0.13837,2000.00000
290.00000,10.00000,50.00000,-0.13072,2000.00000
310.00000,10.00000,50.00000,-0.09708,2000.00000
330.00000,10.00000,50.00000,-0.05729,2000.00000
350.00000,10.00000,50.00000,-0.02850,2000.00000
370.00000,10.00000,50.00000,-0.01743,2000.00000
390.00000,10.00000,50.00000,-0.01977,2000.00000
410.00000,10.00000,50.00000,-0.02538,2000.00000
430.00000,10.00000,50.00000,-0.02491,2000.00000
450.00000,10.00000,50.00000,-0.01427,2000.00000
470.00000,10.00000,50.00000,0.00446,2000.00000
490.00000,10.00000,50.00000,0.02513,2000.00000
510.00000,10.00000,50.00000,0.04074,2000.00000
530.00000,10.00000,50.00000,0.04616,2000.00000
550.00000,10.00000,50.00000,0.03963,2000.00000
570.00000,10.00000,50.00000,0.02263,2000.00000
590.00000,10.00000,50.00000,-0.00103,2000.00000
610.00000,10.00000,50.00000,-0.02667,2000.00000
630.00000,10.00000,50.00000,-0.04991,2000.00000
650.00000,10.00000,50.00000,-0.06754,2000.00000
670.00000,10.00000,50.00000,-0.07785,2000.00000
690.00000,10.00000,50.00000,-0.08050,2000.00000
710.00000,10.00000,50.00000,-0.07629,2000.00000
730.00000,10.00000,50.00000,-0.06665,2000.00000
750.00000,10.00000,50.00000,-0.05331,2000.00000
770.00000,10.00000,50.00000,-0.03799,2000.00000
790.00000,10.00000,50.00000,-0.02212,2000.00000
810.00000,10.00000,50.00000,-0.00684,2000.00000
830.00000,10.00000,50.00000,0.00710,2000.00000
850.00000,10.00000,50.00000,0.01926,2000.00000
870.00000,10.00000,50.00000,0.02947,2000.00000
890.00000,10.00000,50.00000,0.03775,2000.00000
910.00000,10.00000,50.00000,0.04423,2000.00000
930.00000,10.00000,50.00000,0.04913,2000.00000
950.00000,10.00000,50.00000,0.05266,2000.00000
970.00000,10.00000,50.00000,0.05502,2000.00000
990.00000,10.00000,50.00000,0.05638,2000.00000
1010.00000,10.00000,50.00000,0.05681,2000.00000
1030.00000,10.00000,50.00000,0.05638,2000.00000
1050.00000,10.00000,50.00000,0.05503,2000.00000
1070.00000,10.00000,50.00000,0.05266,2000.00000
1090.00000,10.00000,50.00000,0.04913,2000.00000
1110.00000,10.00000,50.00000,0.04423,2000.00000
1130.00000,10.00000,50.00000,0.03775,2000.00000
1150.00000,10.00000,50.00000,0.02947,2000.00000
1170.00000,10.00000,50.00000,0.01926,2000.00000
1190.00000,10.00000,50.00000,0.00710,2000.00000
1210.00000,10.00000,50.00000,-0.00684,2000.00000
1230.00000,10.00000,50.00000,-0.02212,2000.00000
1250.00000,10.00000,50.00000,-0.03799,2000.00000
1270.00000,10.00000,50.00000,-0.05331,2000.00000
1290.00000,10.00000,50.00000,-0.06665,2000.00000
1310.00000,10.00000,50.00000,-0.07629,2000.00000
1330.00000,10.00000,50.00000,-0.08050,2000.00000
1350.00000,10.00000,50.00000,-0.07785,2000.00000
1370.00000,10.00000,50.00000,-0.06754,2000.00000
1390.00000,10.00000,50.00000,-0.04991,2000.00000
1410.00000,10.00000,50.00000,-0.02667,2000.00000
1430.00000,10.00000,50.00000,-0.00103,2000.00000
1450.00000,10.00000,50.00000,0.02263,2000.00000
1470.00000,10.00000,50.00000,0.03963,2000.00000
1490.00000,10.00000,50.00000,0.04616,2000.00000
1510.00000,10.00000,50.00000,0.04074,2000.00000
1530.00000,10.00000,50.00000,0.02513,2000.00000
1550.00000,10.00000,50.00000,0.00446,2000.00000
1570.00000,10.00000,50.00000,-0.01427,2000.00000
1590.00000,10.00000,50.00000,-0.02491,2000.00000
1610.00000,10.00000,50.00000,-0.02538,2000.00000
1630.00000,10.00000,50.00000,-0.01977,2000.00000
1650.00000,10.00000,50.00000,-0.01743,2000.00000
1670.00000,10.00000,50.00000,-0.02850,2000.00000
1690.00000,10.00000,50.00000,-0.05729,2000.00000
1710.00000,10.00000,50.00000,-0.09708,2000.00000
1730.00000,10.00000,50.00000,-0.13072,2000.00000
1750.00000,10.00000,50.00000,-0.13837,2000.00000
1770.00000,10.00000,50.00000,-0.10876,2000.00000
1790.00000,10.00000,50.00000,-0.04650,2000.00000
1810.00000,10.00000,50.00000,0.02969,2000.00000
1830.00000,10.00000,50.00000,0.09665,2000.00000
1850.00000,10.00000,50.00000,0.13762,2000.00000
1870.00000,10.00000,50.00000,0.14788,2000.00000
1890.00000,10.00000,50.00000,0.13343,2000.00000
1910.00000,10.00000,50.00000,0.10544,2000.00000
1930.00000,10.00000,50.00000,0.07450,2000.00000
1950.00000,10.00000,50.00000,0.04744,2000.00000
1970.00000,10.00000,50.00000,0.02676,2000.00000
1990.00000,10.00000,50.00000,0.01178,2000.00000
10.00000,10.00000,70.00000,0.01168,2000.00000
30.00000,10.00000,70.00000,0.02678,2000.00000
50.00000,10.00000,70.00000,0.04802,2000.00000
70.00000,10.00000,70.00000,0.07637,2000.00000
90.00000,10.00000,70.00000,0.10941,2000.00000
110.00000,10.00000,70.00000,0.14016,2000.00000
130.00000,10.00000,70.00000,0.15751,2000.00000
150.00000,10.00000,70.00000,0.14988,2000.00000
170.00000,10.00000,70.00000,0.11174,2000.00000
190.00000,10.00000,70.00000,0.04975,2000.00000
210.00000,10.00000,70.00000,-0.01657,2000.00000
230.00000,10.00000,70.00000,-0.06295,2000.00000
250.00000,10.00000,70.00000,-0.07431,2000.00000
270.00000,10.00000,70.00000,-0.05516,2000.00000
290.00000,10.00000,70.00000,-0.02771,2000.00000
310.00000,10.00000,70.00000,-0.01751,2000.00000
330.00000,10.00000,70.00000,-0.03694,2000.00000
350.00000,10.00000,70.00000,-0.07835,2000.00000
370.00000,10.00000,70.00000,-0.12030,2000.00000
390.00000,10.00000,70.00000,-0.14074,2000.00000
410.00000,10.00000,70.00000,-0.12807,2000.00000
430.00000,10.00000,70.00000,-0.08497,2000.00000
450.00000,10.00000,70.00000,-0.02514,2000.00000
470.00000,10.00000,70.00000,0.03375,2000.00000
490.00000,10.00000,70.00000,0.07679,2000.00000
510.00000,10.00000,70.00000,0.09590,2000.00000
530.00000,10.00000,70.00000,0.09051,2000.00000
550.00000,10.00000,70.00000,0.06588,2000.00000
570.00000,10.00000,70.00000,0.03019,2000.00000
590.00000,10.00000,70.00000,-0.00808,2000.00000
610.00000,10.00000,70.00000,-0.04212,2000.00000
630.00000,10.00000,70.00000,-0.06762,2000.00000
650.00000,10.00000,70.00000,-0.08282,2000.00000
670.00000,10.00000,70.00000,-0.08800,2000.00000
690.00000,10.00000,70.00000,-0.08480,2000.00000
710.00000,10.00000,70.00000,-0.07546,2000.00000
730.00000,10.00000,70.00000,-0.06232,2000.00000
750.00000,10.00000,70.00000,-0.04746,2000.00000
770.00000,10.00000,70.00000,-0.03247,2000.00000
790.00000,10.00000,70.00000,-0.01847,2000.00000
810.00000,10.00000,70.00000,-0.00612,2000.00000
830.00000,10.00000,70.00000,0.00430,2000.00000
850.00000,10.00000,70.00000,0.01274,2000.00000
870.00000,10.00000,70.00000,0.01936,2000.00000
890.00000,10.00000,70.00000,0.02437,2000.00000
910.00000,10.00000,70.00000,0.02806,2000.00000
930.00000,10.00000,70.00000,0.03068,2000.00000
950.00000,10.00000,70.00000,0.03246,2000.00000
970.00000,10.00000,70.00000,0.03359,2000.00000
990.00000,10.00000,70.00000,0.03422,2000.00000
1010.00000,10.00000,70.00000,0.03442,2000.00000
1030.00000,10.00000,70.00000,0.03422,2000.00000
1050.00000,10.00000,70.00000,0.03359,2000.00000
1070.00000,10.00000,70.00000,0.03246,2000.00000
1090.00000,10.00000,70.00000,0.03068,2000.00000
1110.00000,10.00000,70.00000,0.02806,2000.00000
1130.00000,10.00000,70.00000,0.02437,2000.00000
1150.00000,10.00000,70.00000,0.01936,2000.00000
1170.00000,10.00000,70.00000,0.01274,2000.00000
1190.00000,10.00000,70.00000,0.00430,2000.00000
1210.00000,10.00000,70.00000,-0.00612,2000.00000
1230.00000,10.00000,70.00000,-0.01847,2000.00000
1250.00000,10.00000,70.00000,-0.03247,2000.00000
1270.00000,10.00000,70.00000,-0.04746,2000.00000
1290.00000,10.00000,70.00000,-0.06232,2000.00000
1310.00000,10.00000,70.00000,-0.07546,2000.00000
1330.00000,10.00000,70.00000,-0.08480,2000.00000
1350.00000,10.00000,70.00000,-0.08800,2000.00000
1370.00000,10.00000,70.00000,-0.08282,2000.00000
1390.00000,10.00000,70.00000,-0.06762,2000.00000
1410.00000,10.00000,70.00000,-0.04212,2000.00000
1430.00000,10.00000,70.00000,-0.00808,2000.00000
1450.00000,10.00000,70.00000,0.03019,2000.00000
1470.00000,10.00000,70.00000,0.06588,2000.00000
1490.00000,10.00000,70.00000,0.09051,2000.00000
1510.00000,10.00000,70.00000,0.09590,2000.00000
1530.00000,10.00000,70.00000,0.07679,2000.00000
1550.00000,10.00000,70.00000,0.03375,2000.00000
1570.00000,10.00000,70.00000,-0.02514,2000.00000
1590.00000,10.00000,70.00000,-0.08497,2000.00000
1610.00000,10.00000,70.00000,-0.12807,2000.00000
1630.00000,10.00000,70.00000,-0.14074,2000.00000
1650.00000,10.00000,70.00000,-0.12030,2000.00000
1670.00000,10.00000,70.00000,-0.07835,2000.00000
1690.00000,10.00000,70.00000,-0.03694,2000.00000
1710.00000,10.00000,70.00000,-0.01751,2000.00000
1730.00000,10.00000,70.00000,-0.02771,2000.00000
1750.00000,10.00000,70.00000,-0.05516,2000.00000
1770.00000,10.00000,70.00000,-0.07431,2000.00000
1790.00000,10.00000,70.00000,-0.06295,2000.00000
1810.00000,10.00000,70.00000,-0.01657,2000.00000
1830.00000,10.00000,70.00000,0.04975,2000.00000
1850.00000,10.00000,70.00000,0.11173,2000.00000
1870.00000,10.00000,70.00000,0.14985,2000.00000
1890.00000,10.00000,70.00000,0.15743,2000.00000
1910.00000,10.00000,70.00000,0.13995,2000.00000
1930.00000,10.00000,70.00000,0.10887,2000.00000
1950.00000,10.00000,70.00000,0.07507,2000.00000
1970.00000,10.00000,70.00000,0.04512,2000.00000
1990.00000,10.00000,70.00000,0.02073,2000.00000
10.00000,10.00000,90.00000,0.02028,2000.00000
30.00000,10.00000,90.00000,0.04449,2000.00000
50.00000,10.00000,90.00000,0.07473,2000.00000
70.00000,10.00000,90.00000,0.10941,2000.00000
90.00000,10.00000,90.00000,0.14171,2000.00000
110.00000,10.00000,90.00000,0.16013,2000.00000
130.00000,10.00000,90.00000,0.15257,2000.00000
150.00000,10.00000,90.00000,0.11384,2000.00000
170.00000,10.00000,90.00000,0.05285,2000.00000
190.00000,10.00000,90.00000,-0.00701,2000.00000
210.00000,10.00000,90.00000,-0.03847,2000.00000
230.00000,10.00000,90.00000,-0.02812,2000.00000
250.00000,10.00000,90.00000,0.01141,2000.00000
270.00000,10.00000,90.00000,0.04682,2000.00000
290.00000,10.00000,90.00000,0.04601,2000.00000
310.00000,10.00000,90.00000,0.00012,2000.00000
330.00000,10.00000,90.00000,-0.07147,2000.00000
350.00000,10.00000,90.00000,-0.13574,2000.00000
370.00000,10.00000,90.00000,-0.16660,2000.00000
390.00000,10.00000,90.00000,-0.15681,2000.00000
410.00000,10.00000,90.00000,-0.11694,2000.00000
430.00000,10.00000,90.00000,-0.06624,2000.00000
450.00000,10.00000,90.00000,-0.02241,2000.00000
470.00000,10.00000,90.00000,0.00477,2000.00000
490.00000,10.00000,90.00000,0.01441,2000.00000
510.00000,10.00000,90.00000,0.01171,2000.00000
530.00000,10.00000,90.00000,0.00402,2000.00000
550.00000,10.00000,90.00000,-0.00248,2000.00000
570.00000,10.00000,90.00000,-0.00443,2000.00000
590.00000,10.00000,90.00000,-0.00140,2000.00000
610.00000,10.00000,90.00000,0.00501,2000.00000
630.00000,10.00000,90.00000,0.01228,2000.00000
650.00000,10.00000,90.00000,0.01803,2000.00000
670.00000,10.00000,90.00000,0.02059,2000.00000
690.00000,10.00000,90.00000,0.01927,2000.00000
710.00000,10.00000,90.00000,0.01419,2000.00000
730.00000,10.00000,90.00000,0.00612,2000.00000
750.00000,10.00000,90.00000,-0.00392,2000.00000
770.00000,10.00000,90.00000,-0.01483,2000.00000
790.00000,10.00000,90.00000,-0.02567,2000.00000
810.00000,10.00000,90.00000,-0.03572,2000.00000
830.00000,10.00000,90.00000,-0.04452,2000.00000
850.00000,10.00000,90.00000,-0.05185,2000.00000
870.00000,10.00000,90.00000,-0.05769,2000.00000
890.00000,10.00000,90.00000,-0.06214,2000.00000
910.00000,10.00000,90.00000,-0.06539,2000.00000
930.00000,10.00000,90.00000,-0.06765,2000.00000
950.00000,10.00000,90.00000,-0.06915,2000.00000
970.00000,10.00000,90.00000,-0.07007,2000.00000
990.00000,10.00000,90.00000,-0.07056,2000.00000
1010.00000,10.00000,90.00000,-0.07072,2000.00000
1030.00000,10.00000,90.00000,-0.07056,2000.00000
1050.00000,10.00000,90.00000,-0.07007,2000.00000
1070.00000,10.00000,90.00000,-0.06915,2000.00000
1090.00000,10.00000,90.00000,-0.06765,2000.00000
1110.00000,10.00000,90.00000,-0.06539,2000.00000
1130.00000,10.00000,90.00000,-0.06214,2000.00000
1150.00000,10.00000,90.00000,-0.05769,2000.00000
1170.00000,10.00000,90.00000,-0.05185,2000.00000
1190.00000,10.00000,90.00000,-0.04452,2000.00000
1210.00000,10.00000,90.00000,-0.03572,2000.00000
1230.00000,10.00000,90.00000,-0.02567,2000.00000
1250.00000,10.00000,90.00000,-0.01483,2000.00000
1270.00000,10.00000,90.00000,-0.00392,2000.00000
1290.00000,10.00000,90.00000,0.00612,2000.00000
1310.00000,10.00000,90.00000,0.01419,2000.00000
1330.00000,10.00000,90.00000,0.01927,2000.00000
1350.00000,10.00000,90.00000,0.02059,2000.00000
1370.00000,10.00000,90.00000,0.01803,2000.00000
1390.00000,10.00000,90.00000,0.01228,2000.00000
1410.00000,10.00000,90.00000,0.00501,2000.00000
1430.00000,10.00000,90.00000,-0.00140,2000.00000
1450.00000,10.00000,90.00000,-0.00443,2000.00000
1470.00000,10.00000,90.00000,-0.00248,2000.00000
1490.00000,10.00000,90.00000,0.00402,2000.00000
1510.00000,10.00000,90.00000,0.01171,2000.00000
1530.00000,10.00000,90.00000,0.01441,2000.00000
1550.00000,10.00000,90.00000,0.00477,2000.00000
1570.00000,10.00000,90.00000,-0.02241,2000.00000
1590.00000,10.00000,90.00000,-0.06624,2000.00000
1610.00000,10.00000,90.00000,-0.11694,2000.00000
1630.00000,10.00000,90.00000,-0.15681,2000.00000
1650.00000,10.00000,90.00000,-0.16660,2000.00000
1670.00000,10.00000,90.00000,-0.13574,2000.00000
1690.00000,10.00000,90.00000,-0.07147,2000.00000
1710.00000,10.00000,90.00000,0.00012,2000.00000
1730.00000,10.00000,90.00000,0.04601,2000.00000
1750.00000,10.00000,90.00000,0.04682,2000.00000
1770.00000,10.00000,90.00000,0.01141,2000.00000
1790.00000,10.00000,90.00000,-0.02812,2000.00000
1810.00000,10.00000,90.00000,-0.03847,2000.00000
1830.00000,10.00000,90.00000,-0.00702,2000.00000
1850.00000,10.00000,90.00000,0.05282,2000.00000
1870.00000,10.00000,90.00000,0.11377,2000.00000
1890.00000,10.00000,90.00000,0.15238,2000.00000
1910.00000,10.00000,90.00000,0.15964,2000.00000
1930.00000,10.00000,90.00000,0.14053,2000.00000
1950.00000,10.00000,90.00000,0.10672,2000.00000
1970.00000,10.00000,90.00000,0.06901,2000.00000
1990.00000,10.00000,90.00000,0.03324,2000.00000
10.00000,10.00000,110.00000,0.03234,2000.00000
30.00000,10.00000,110.00000,0.06762,2000.00000
50.00000,10.00000,110.00000,0.10552,2000.00000
70.00000,10.00000,110.00000,0.14016,2000.00000
90.00000,10.00000,110.00000,0.16013,2000.00000
110.00000,10.00000,110.00000,0.15282,2000.00000
130.00000,10.00000,110.00000,0.11289,2000.00000
150.00000,10.00000,110.00000,0.05069,2000.00000
170.00000,10.00000,110.00000,-0.00697,2000.00000
190.00000,10.00000,110.00000,-0.02943,2000.00000
210.00000,10.00000,110.00000,-0.00371,2000.00000
230.00000,10.00000,110.00000,0.05123,2000.00000
250.00000,10.00000,110.00000,0.09324,2000.00000
270.00000,10.00000,110.00000,0.08665,2000.00000
290.00000,10.00000,110.00000,0.02947,2000.00000
310.00000,10.00000,110.00000,-0.04634,2000.00000
330.00000,10.00000,110.00000,-0.10101,2000.00000
350.00000,10.00000,110.00000,-0.11486,2000.00000
370.00000,10.00000,110.00000,-0.09597,2000.00000
390.00000,10.00000,110.00000,-0.06786,2000.00000
410.00000,10.00000,110.00000,-0.05204,2000.00000
430.00000,10.00000,110.00000,-0.05719,2000.00000
450.00000,10.00000,110.00000,-0.07793,2000.00000
470.00000,10.00000,110.00000,-0.10094,2000.00000
490.00000,10.00000,110.00000,-0.11304,2000.00000
510.00000,10.00000,110.00000,-0.10672,2000.00000
530.00000,10.00000,110.00000,-0.08178,2000.00000
550.00000,10.00000,110.00000,-0.04391,2000.00000
570.00000,10.00000,110.00000,-0.00158,2000.00000
590.00000,10.00000,110.00000,0.03694,2000.00000
610.00000,10.00000,110.00000,0.06562,2000.00000
630.00000,10.00000,110.00000,0.08145,2000.00000
650.00000,10.00000,110.00000,0.08427,2000.00000
670.00000,10.00000,110.00000,0.07600,2000.00000
690.00000,10.00000,110.00000,0.05970,2000.00000
710.00000,10.00000,110.00000,0.03866,2000.00000
730.00000,10.00000,110.00000,0.01590,2000.00000
750.00000,10.00000,110.00000,-0.00625,2000.00000
770.00000,10.00000,110.00000,-0.02619,2000.00000
790.00000,10.00000,110.00000,-0.04305,2000.00000
810.00000,10.00000,110.00000,-0.05653,2000.00000
830.00000,10.00000,110.00000,-0.06674,2000.00000
850.00000,10.00000,110.00000,-0.07405,2000.00000
870.00000,10.00000,110.00000,-0.07895,2000.00000
890.00000,10.00000,110.00000,-0.08199,2000.00000
910.00000,10.00000,110.00000,-0.08367,2000.00000
930.00000,10.00000,110.00000,-0.08444,2000.00000
950.00000,10.00000,110.00000,-0.08466,2000.00000
970.00000,10.00000,110.00000,-0.08463,2000.00000
990.00000,10.00000,110.00000,-0.08453,2000.00000
1010.00000,10.00000,110.00000,-0.08448,2000.00000
1030.00000,10.00000,110.00000,-0.08453,2000.00000
1050.00000,10.00000,110.00000,-0.08463,2000.00000
1070.00000,10.00000,110.00000,-0.08466,2000.00000
1090.00000,10.00000,110.00000,-0.08444,2000.00000
1110.00000,10.00000,110.00000,-0.08367,2000.00000
1130.00000,10.00000,110.00000,-0.08199,2000.00000
1150.00000,10.00000,110.00000,-0.07895,2000.00000
1170.00000,10.00000,110.00000,-0.07405,2000.00000
1190.00000,10.00000,110.00000,-0.06674,2000.00000
1210.00000,10.00000,110.00000,-0.05653,2000.00000
1230.00000,10.00000,110.00000,-0.04305,2000.00000
1250.00000,10.00000,110.00000,-0.02619,2000.00000
1270.00000,10.00000,110.00000,-0.00625,2000.00000
1290.00000,10.00000,110.00000,0.01590,2000.00000
1310.00000,10.00000,110.00000,0.03866,2000.00000
1330.00000,10.00000,110.00000,0.05970,2000.00000
1350.00000,10.00000,110.00000,0.07600,2000.00000
1370.00000,10.00000,110.00000,0.08427,2000.00000
1390.00000,10.00000,110.00000,0.08145,2000.00000
1410.00000,10.00000,110.00000,0.06562,2000.00000
1430.00000,10.00000,110.00000,0.03694,2000.00000
1450.00000,10.00000,110.00000,-0.00158,2000.00000
1470.00000,10.00000,110.00000,-0.04391,2000.00000
1490.00000,10.00000,110.00000,-0.08178,2000.00000
1510.00000,10.00000,110.00000,-0.10672,2000.00000
1530.00000,10.00000,110.00000,-0.11304,2000.00000
1550.00000,10.00000,110.00000,-0.10094,2000.00000
1570.00000,10.00000,110.00000,-0.07793,2000.00000
1590.00000,10.00000,110.00000,-0.05719,2000.00000
1610.00000,10.00000,110.00000,-0.05204,2000.00000
1630.00000,10.00000,110.00000,-0.06786,2000.00000
1650.00000,10.00000,110.00000,-0.09597,2000.00000
1670.00000,10.00000,110.00000,-0.11486,2000.00000
1690.00000,10.00000,110.00000,-0.10101,2000.00000
1710.00000,10.00000,110.00000,-0.04634,2000.00000
1730.00000,10.00000,110.00000,0.02947,2000.00000
1750.00000,10.00000,110.00000,0.08665,2000.00000
1770.00000,10.00000,110.00000,0.09324,2000.00000
1790.00000,10.00000,110.00000,0.05123,2000.00000
1810.00000,10.00000,110.00000,-0.00372,2000.00000
1830.00000,10.00000,110.00000,-0.02945,2000.00000
1850.00000,10.00000,110.00000,-0.00702,2000.00000
1870.00000,10.00000,110.00000,0.05053,2000.00000
1890.00000,10.00000,110.00000,0.11247,2000.00000
1910.00000,10.00000,110.00000,0.15178,2000.00000
1930.00000,10.00000,110.00000,0.15769,2000.00000
1950.00000,10.00000,110.00000,0.13489,2000.00000
1970.00000,10.00000,110.00000,0.09497,2000.00000
1990.00000,10.00000,110.00000,0.04824,2000.00000
10.00000,10.00000,130.00000,0.04693,2000.00000
30.00000,10.00000,130.00000,0.09307,2000.00000
50.00000,10.00000,130.00000,0.13346,2000.00000
70.00000,10.00000,130.00000,0.15751,2000.00000
90.00000,10.00000,130.00000,0.15257,2000.00000
110.00000,10.00000,130.00000,0.11289,2000.00000
130.00000,10.00000,130.00000,0.04945,2000.00000
150.00000,10.00000,130.00000,-0.00841,2000.00000
170.00000,10.00000,130.00000,-0.02674,2000.00000
190.00000,10.00000,130.00000,0.00792,2000.00000
210.00000,10.00000,130.00000,0.07163,2000.00000
230.00000,10.00000,130.00000,0.11471,2000.00000
250.00000,10.00000,130.00000,0.09986,2000.00000
270.00000,10.00000,130.00000,0.03468,2000.00000
290.00000,10.00000,130.00000,-0.03429,2000.00000
310.00000,10.00000,130.00000,-0.06265,2000.00000
330.00000,10.00000,130.00000,-0.04369,2000.00000
350.00000,10.00000,130.00000,-0.00687,2000.00000
370.00000,10.00000,130.00000,0.01154,2000.00000
390.00000,10.00000,130.00000,-0.00611,2000.00000