TITLE = "data/convFD466.dat"
VARIABLES = "x","y","z","Wavefield","Velocity"
ZONE T = "Frame 466", I = 100, J = 1, K = 100
10.00000,10.00000,10.00000,-0.25444,2000.00000
30.00000,10.00000,10.00000,-0.08534,2000.00000
50.00000,10.00000,10.00000,0.21316,2000.00000
70.00000,10.00000,10.00000,0.16851,2000.00000
90.00000,10.00000,10.00000,-0.10694,2000.00000
110.00000,10.00000,10.00000,-0.20238,2000.00000
130.00000,10.00000,10.00000,-0.04689,2000.00000
150.00000,10.00000,10.00000,0.12880,2000.00000
170.00000,10.00000,10.00000,0.15200,2000.00000
190.00000,10.00000,10.00000,0.02627,2000.00000
210.00000,10.00000,10.00000,-0.10528,2000.00000
230.00000,10.00000,10.00000,-0.10599,2000.00000
250.00000,10.00000,10.00000,-0.01526,2000.00000
270.00000,10.00000,10.00000,0.04477,2000.00000
290.00000,10.00000,10.00000,0.04583,2000.00000
310.00000,10.00000,10.00000,0.01964,2000.00000
330.00000,10.00000,10.00000,-0.00089,2000.00000
350.00000,10.00000,10.00000,0.00825,2000.00000
370.00000,10.00000,10.00000,0.02522,2000.00000
390.00000,10.00000,10.00000,0.02257,2000.00000
410.00000,10.00000,10.00000,0.00501,2000.00000
430.00000,10.00000,10.00000,-0.02085,2000.00000
450.00000,10.00000,10.00000,-0.03862,2000.00000
470.00000,10.00000,10.00000,-0.03623,2000.00000
490.00000,10.00000,10.00000,-0.02151,2000.00000
510.00000,10.00000,10.00000,0.00158,2000.00000
530.00000,10.00000,10.00000,0.02222,2000.00000
550.00000,10.00000,10.00000,0.03317,2000.00000
570.00000,10.00000,10.00000,0.03562,2000.00000
590.00000,10.00000,10.00000,0.02714,2000.00000
610.00000,10.00000,10.00000,0.01390,2000.00000
630.00000,10.00000,10.00000,-0.00240,2000.00000
650.00000,10.00000,10.00000,-0.01861,2000.00000
670.00000,10.00000,10.00000,-0.03148,2000.00000
690.00000,10.00000,10.00000,-0.04192,2000.00000
710.00000,10.00000,10.00000,-0.04714,2000.00000
730.00000,10.00000,10.00000,-0.04973,2000.00000
750.00000,10.00000,10.00000,-0.04828,2000.00000
770.00000,10.00000,10.00000,-0.04494,2000.00000
790.00000,10.00000,10.00000,-0.03970,2000.00000
810.00000,10.00000,10.00000,-0.03343,2000.00000
830.00000,10.00000,10.00000,-0.02710,2000.00000
850.00000,10.00000,10.00000,-0.02034,2000.00000
870.00000,10.00000,10.00000,-0.01464,2000.00000
890.00000,10.00000,10.00000,-0.00884,2000.00000
910.00000,10.00000,10.00000,-0.00459,2000.00000
930.00000,10.00000,10.00000,-0.00036,2000.00000
950.00000,10.00000,10.00000,0.00218,2000.00000
970.00000,10.00000,10.00000,0.00470,2000.00000
990.00000,10.00000,10.00000,0.00554,2000.00000
1010.00000,10.00000,10.00000,0.00637,2000.00000
1030.00000,10.00000,10.00000,0.00554,2000.00000
1050.00000,10.00000,10.00000,0.00470,2000.00000
1070.00000,10.00000,10.00000,0.00218,2000.00000
1090.00000,10.00000,10.00000,-0.00036,2000.00000
1110.00000,10.00000,10.00000,-0.00459,2000.00000
1130.00000,10.00000,10.00000,-0.00884,2000.00000
1150.00000,10.00000,10.00000,-0.01464,2000.00000
1170.00000,10.00000,10.00000,-0.02034,2000.00000
1190.00000,10.00000,10.00000,-0.02710,2000.00000
1210.00000,10.00000,10.00000,-0.03343,2000.00000
1230.00000,10.00000,10.00000,-0.03971,2000.00000
1250.00000,10.00000,10.00000,-0.04496,2000.00000
1270.00000,10.00000,10.00000,-0.04833,2000.00000
1290.00000,10.00000,10.00000,-0.04988,2000.00000
1310.00000,10.00000,10.00000,-0.04748,2000.00000
1330.00000,10.00000,10.00000,-0.04267,2000.00000
1350.00000,10.00000,10.00000,-0.03302,2000.00000
1370.00000,10.00000,10.00000,-0.02157,2000.00000
1390.00000,10.00000,10.00000,-0.00765,2000.00000
1410.00000,10.00000,10.00000,0.00547,2000.00000
1430.00000,10.00000,10.00000,0.01514,2000.00000
1450.00000,10.00000,10.00000,0.02116,2000.00000
1470.00000,10.00000,10.00000,0.02008,2000.00000
1490.00000,10.00000,10.00000,0.01763,2000.00000
1510.00000,10.00000,10.00000,0.01449,2000.00000
1530.00000,10.00000,10.00000,0.01494,2000.00000
1550.00000,10.00000,10.00000,0.01940,2000.00000
1570.00000,10.00000,10.00000,0.01582,2000.00000
1590.00000,10.00000,10.00000,0.00007,2000.00000
1610.00000,10.00000,10.00000,-0.03280,2000.00000
1630.00000,10.00000,10.00000,-0.06528,2000.00000
1650.00000,10.00000,10.00000,-0.05867,2000.00000
1670.00000,10.00000,10.00000,-0.00157,2000.00000
1690.00000,10.00000,10.00000,0.08549,2000.00000
1710.00000,10.00000,10.00000,0.13292,2000.00000
1730.00000,10.00000,10.00000,0.06963,2000.00000
1750.00000,10.00000,10.00000,-0.06172,2000.00000
1770.00000,10.00000,10.00000,-0.14266,2000.00000
1790.00000,10.00000,10.00000,-0.09502,2000.00000
1810.00000,10.00000,10.00000,0.04749,2000.00000
1830.00000,10.00000,10.00000,0.12368,2000.00000
1850.00000,10.00000,10.00000,0.04265,2000.00000
1870.00000,10.00000,10.00000,-0.04723,2000.00000
1890.00000,10.00000,10.00000,-0.01810,2000.00000
1910.00000,10.00000,10.00000,0.01284,2000.00000
1930.00000,10.00000,10.00000,-0.04229,2000.00000
1950.00000,10.00000,10.00000,-0.05163,2000.00000
1970.00000,10.00000,10.00000,0.05022,2000.00000
1990.00000,10.00000,10.00000,0.10110,2000.00000
10.00000,10.00000,30.00000,-0.08534,2000.00000
30.00000,10.00000,30.00000,-0.03650,2000.00000
50.00000,10.00000,30.00000,0.05228,2000.00000
70.00000,10.00000,30.00000,0.05216,2000.00000
90.00000,10.00000,30.00000,-0.00826,2000.00000
110.00000,10.00000,30.00000,-0.04588,2000.00000
130.00000,10.00000,30.00000,-0.01967,2000.00000
150.00000,10.00000,30.00000,0.04780,2000.00000
170.00000,10.00000,30.00000,0.05063,2000.00000
190.00000,10.00000,30.00000,-0.04690,2000.00000
210.00000,10.00000,30.00000,-0.09548,2000.00000
230.00000,10.00000,30.00000,-0.00315,2000.00000
250.00000,10.00000,30.00000,0.10738,2000.00000
270.00000,10.00000,30.00000,0.11369,2000.00000
290.00000,10.00000,30.00000,0.02071,2000.00000
310.00000,10.00000,30.00000,-0.09820,2000.00000
330.00000,10.00000,30.00000,-0.13960,2000.00000
350.00000,10.00000,30.00000,-0.07092,2000.00000
370.00000,10.00000,30.00000,0.03731,2000.00000
390.00000,10.00000,30.00000,0.12127,2000.00000
410.00000,10.00000,30.00000,0.14498,2000.00000
430.00000,10.00000,30.00000,0.10426,2000.00000
450.00000,10.00000,30.00000,0.03945,2000.00000
470.00000,10.00000,30.00000,-0.02397,2000.00000
490.00000,10.00000,30.00000,-0.06968,2000.00000
510.00000,10.00000,30.00000,-0.08799,2000.00000
530.00000,10.00000,30.00000,-0.09058,2000.00000
550.00000,10.00000,30.00000,-0.07868,2000.00000
570.00000,10.00000,30.00000,-0.06048,2000.00000
590.00000,10.00000,30.00000,-0.04138,2000.00000
610.00000,10.00000,30.00000,-0.02012,2000.00000
630.00000,10.00000,30.00000,-0.00328,2000.00000
650.00000,10.00000,30.00000,0.01281,2000.00000
670.00000,10.00000,30.00000,0.02419,2000.00000
690.00000,10.00000,30.00000,0.03225,2000.00000
710.00000,10.00000,30.00000,0.03732,2000.00000
730.00000,10.00000,30.00000,0.03807,2000.00000
750.00000,10.00000,30.00000,0.03781,2000.00000
770.00000,10.00000,30.00000,0.03385,2000.00000
790.00000,10.00000,30.00000,0.03029,2000.00000
810.00000,10.00000,30.00000,0.02443,2000.00000
830.00000,10.00000,30.00000,0.01957,2000.00000
850.00000,10.00000,30.00000,0.01381,2000.00000
870.00000,10.00000,30.00000,0.00911,2000.00000
890.00000,10.00000,30.00000,0.00451,2000.00000
910.00000,10.00000,30.00000,0.00073,2000.00000
930.00000,10.00000,30.00000,-0.00235,2000.00000
950.00000,10.00000,30.00000,-0.00489,2000.00000
970.00000,10.00000,30.00000,-0.00644,2000.00000
990.00000,10.00000,30.00000,-0.00767,2000.00000
1010.00000,10.00000,30.00000,-0.00779,2000.00000
1030.00000,10.00000,30.00000,-0.00767,2000.00000
1050.00000,10.00000,30.00000,-0.00644,2000.00000
1070.00000,10.00000,30.00000,-0.00489,2000.00000
1090.00000,10.00000,30.00000,-0.00235,2000.00000
1110.00000,10.00000,30.00000,0.00073,2000.00000
1130.00000,10.00000,30.00000,0.00451,2000.00000
1150.00000,10.00000,30.00000,0.00911,2000.00000
1170.00000,10.00000,30.00000,0.01381,2000.00000
1190.00000,10.00000,30.00000,0.01957,2000.00000
1210.00000,10.00000,30.00000,0.02442,2000.00000
1230.00000,10.00000,30.00000,0.03027,2000.00000
1250.00000,10.00000,30.00000,0.03380,2000.00000
1270.00000,10.00000,30.00000,0.03767,2000.00000
1290.00000,10.00000,30.00000,0.03774,2000.00000
1310.00000,10.00000,30.00000,0.03657,2000.00000
1330.00000,10.00000,30.00000,0.03063,2000.00000
1350.00000,10.00000,30.00000,0.02089,2000.00000
1370.00000,10.00000,30.00000,0.00661,2000.00000
1390.00000,10.00000,30.00000,-0.01402,2000.00000
1410.00000,10.00000,30.00000,-0.03698,2000.00000
1430.00000,10.00000,30.00000,-0.06475,2000.00000
1450.00000,10.00000,30.00000,-0.08771,2000.00000
1470.00000,10.00000,30.00000,-0.10196,2000.00000
1490.00000,10.00000,30.00000,-0.09640,2000.00000
1510.00000,10.00000,30.00000,-0.06048,2000.00000
1530.00000,10.00000,30.00000,0.00013,2000.00000
1550.00000,10.00000,30.00000,0.07738,2000.00000
1570.00000,10.00000,30.00000,0.13408,2000.00000
1590.00000,10.00000,30.00000,0.13665,2000.00000
1610.00000,10.00000,30.00000,0.07667,2000.00000
1630.00000,10.00000,30.00000,-0.02659,2000.00000
1650.00000,10.00000,30.00000,-0.09798,2000.00000
1670.00000,10.00000,30.00000,-0.08490,2000.00000
1690.00000,10.00000,30.00000,-0.00682,2000.00000
1710.00000,10.00000,30.00000,0.06941,2000.00000
1730.00000,10.00000,30.00000,0.05483,2000.00000
1750.00000,10.00000,30.00000,-0.03306,2000.00000
1770.00000,10.00000,30.00000,-0.06294,2000.00000
1790.00000,10.00000,30.00000,0.00772,2000.00000
1810.00000,10.00000,30.00000,0.08862,2000.00000
1830.00000,10.00000,30.00000,0.06915,2000.00000
1850.00000,10.00000,30.00000,-0.06339,2000.00000
1870.00000,10.00000,30.00000,-0.13339,2000.00000
1890.00000,10.00000,30.00000,-0.00001,2000.00000
1910.00000,10.00000,30.00000,0.13772,2000.00000
1930.00000,10.00000,30.00000,0.04664,2000.00000
1950.00000,10.00000,30.00000,-0.09610,2000.00000
1970.00000,10.00000,30.00000,-0.03999,2000.00000
1990.00000,10.00000,30.00000,0.06223,2000.00000
10.00000,10.00000,50.00000,0.21316,2000.00000
30.00000,10.00000,50.00000,0.05228,2000.00000
50.00000,10.00000,50.00000,-0.18437,2000.00000
70.00000,10.00000,50.00000,-0.09755,2000.00000
90.00000,10.00000,50.00000,0.11367,2000.00000
110.00000,10.00000,50.00000,0.10428,2000.00000
130.00000,10.00000,50.00000,-0.01322,2000.00000
150.00000,10.00000,50.00000,-0.03062,2000.00000
170.00000,10.00000,50.00000,-0.02686,2000.00000
190.00000,10.00000,50.00000,-0.05593,2000.00000
210.00000,10.00000,50.00000,-0.02725,2000.00000
230.00000,10.00000,50.00000,0.04342,2000.00000
250.00000,10.00000,50.00000,0.08900,2000.00000
270.00000,10.00000,50.00000,0.09198,2000.00000
290.00000,10.00000,50.00000,0.01332,2000.00000
310.00000,10.00000,50.00000,-0.10070,2000.00000
330.00000,10.00000,50.00000,-0.12800,2000.00000
350.00000,10.00000,50.00000,-0.06318,2000.00000
370.00000,10.00000,50.00000,0.04267,2000.00000
390.00000,10.00000,50.00000,0.14000,2000.00000
410.00000,10.00000,50.00000,0.16048,2000.00000
430.00000,10.00000,50.00000,0.11441,2000.00000
450.00000,10.00000,50.00000,0.04164,2000.00000
470.00000,10.00000,50.00000,-0.03756,2000.00000
490.00000,10.00000,50.00000,-0.08454,2000.00000
510.00000,10.00000,50.00000,-0.10313,2000.00000
530.00000,10.00000,50.00000,-0.10120,2000.00000
550.00000,10.00000,50.00000,-0.08018,2000.00000
570.00000,10.00000,50.00000,-0.06093,2000.00000
590.00000,10.00000,50.00000,-0.03793,2000.00000
610.00000,10.00000,50.00000,-0.02026,2000.00000
630.00000,10.00000,50.00000,-0.00739,2000.00000
650.00000,10.00000,50.00000,0.00464,2000.00000
670.00000,10.00000,50.00000,0.00927,2000.00000
690.00000,10.00000,50.00000,0.01557,2000.00000
710.00000,10.00000,50.00000,0.01590,2000.00000
730.00000,10.00000,50.00000,0.01733,2000.00000
750.00000,10.00000,50.00000,0.01603,2000.00000
770.00000,10.00000,50.00000,0.01415,2000.00000
790.00000,10.00000,50.00000,0.01263,2000.00000
810.00000,10.00000,50.00000,0.00916,2000.00000
830.00000,10.00000,50.00000,0.00802,2000.00000
850.00000,10.00000,50.00000,0.00425,2000.00000
870.00000,10.00000,50.00000,0.00366,2000.00000
890.00000,10.00000,50.00000,0.00030,2000.00000
910.00000,10.00000,50.00000,0.00025,2000.00000
930.00000,10.00000,50.00000,-0.00243,2000.00000
950.00000,10.00000,50.00000,-0.00200,2000.00000
970.00000,10.00000,50.00000,-0.00400,2000.00000
990.00000,10.00000,50.00000,-0.00310,2000.00000
1010.00000,10.00000,50.00000,-0.00450,2000.00000
1030.00000,10.00000,50.00000,-0.00310,2000.00000
1050.00000,10.00000,50.00000,-0.00400,2000.00000
1070.00000,10.00000,50.00000,-0.00200,2000.00000
1090.00000,10.00000,50.00000,-0.00243,2000.00000
1110.00000,10.00000,50.00000,0.00025,2000.00000
1130.00000,10.00000,50.00000,0.00030,2000.00000
1150.00000,10.00000,50.00000,0.00366,2000.00000
1170.00000,10.00000,50.00000,0.00425,2000.00000
1190.00000,10.00000,50.00000,0.00802,2000.00000
1210.00000,10.00000,50.00000,0.00915,2000.00000
1230.00000,10.00000,50.00000,0.01260,2000.00000
1250.00000,10.00000,50.00000,0.01405,2000.00000
1270.00000,10.00000,50.00000,0.01578,2000.00000
1290.00000,10.00000,50.00000,0.01674,2000.00000
1310.00000,10.00000,50.00000,0.01458,2000.00000
1330.00000,10.00000,50.00000,0.01280,2000.00000
1350.00000,10.00000,50.00000,0.00382,2000.00000
1370.00000,10.00000,50.00000,-0.00531,2000.00000
1390.00000,10.00000,50.00000,-0.02406,2000.00000
1410.00000,10.00000,50.00000,-0.04546,2000.00000
1430.00000,10.00000,50.00000,-0.07135,2000.00000
1450.00000,10.00000,50.00000,-0.09761,2000.00000
1470.00000,10.00000,50.00000,-0.10829,2000.00000
1490.00000,10.00000,50.00000,-0.10240,2000.00000
1510.00000,10.00000,50.00000,-0.05866,2000.00000
1530.00000,10.00000,50.00000,0.01225,2000.00000
1550.00000,10.00000,50.00000,0.09164,2000.00000
1570.00000,10.00000,50.00000,0.15241,2000.00000
1590.00000,10.00000,50.00000,0.14378,2000.00000
1610.00000,10.00000,50.00000,0.07550,2000.00000
1630.00000,10.00000,50.00000,-0.02211,2000.00000
1650.00000,10.00000,50.00000,-0.09357,2000.00000
1670.00000,10.00000,50.00000,-0.07411,2000.00000
1690.00000,10.00000,50.00000,-0.00924,2000.00000
1710.00000,10.00000,50.00000,0.03608,2000.00000
1730.00000,10.00000,50.00000,0.03856,2000.00000
1750.00000,10.00000,50.00000,-0.00663,2000.00000
1770.00000,10.00000,50.00000,-0.01374,2000.00000
1790.00000,10.00000,50.00000,0.04486,2000.00000
1810.00000,10.00000,50.00000,0.04712,2000.00000
1830.00000,10.00000,50.00000,-0.01580,2000.00000
1850.00000,10.00000,50.00000,-0.04518,2000.00000
1870.00000,10.00000,50.00000,-0.04651,2000.00000
1890.00000,10.00000,50.00000,-0.02067,2000.00000
1910.00000,10.00000,50.00000,0.05983,2000.00000
1930.00000,10.00000,50.00000,0.08995,2000.00000
1950.00000,10.00000,50.00000,0.00050,2000.00000
1970.00000,10.00000,50.00000,-0.07933,2000.00000
1990.00000,10.00000,50.00000,-0.06039,2000.00000
10.00000,10.00000,70.00000,0.16851,2000.00000
30.00000,10.00000,70.00000,0.05216,2000.00000
50.00000,10.00000,70.00000,-0.09755,2000.00000
70.00000,10.00000,70.00000,-0.04856,2000.00000
90.00000,10.00000,70.00000,0.01914,2000.00000
110.00000,10.00000,70.00000,0.00084,2000.00000
130.00000,10.00000,70.00000,0.01177,2000.00000
150.00000,10.00000,70.00000,0.02973,2000.00000
170.00000,10.00000,70.00000,0.00654,2000.00000
190.00000,10.00000,70.00000,0.02012,2000.00000
210.00000,10.00000,70.00000,0.02142,2000.00000
230.00000,10.00000,70.00000,-0.05041,2000.00000
250.00000,10.00000,70.00000,-0.05753,2000.00000
270.00000,10.00000,70.00000,0.01608,2000.00000
290.00000,10.00000,70.00000,0.03970,2000.00000
310.00000,10.00000,70.00000,0.03190,2000.00000
330.00000,10.00000,70.00000,0.02236,2000.00000
350.00000,10.00000,70.00000,0.00393,2000.00000
370.00000,10.00000,70.00000,0.03277,2000.00000
390.00000,10.00000,70.00000,0.06919,2000.00000
410.00000,10.00000,70.00000,0.06201,2000.00000
430.00000,10.00000,70.00000,0.04111,2000.00000
450.00000,10.00000,70.00000,-0.00660,2000.00000
470.00000,10.00000,70.00000,-0.04940,2000.00000
490.00000,10.00000,70.00000,-0.05873,2000.00000
510.00000,10.00000,70.00000,-0.06015,2000.00000
530.00000,10.00000,70.00000,-0.03838,2000.00000
550.00000,10.00000,70.00000,-0.01949,2000.00000
570.00000,10.00000,70.00000,-0.01088,2000.00000
590.00000,10.00000,70.00000,-0.00378,2000.00000
610.00000,10.00000,70.00000,-0.01493,2000.00000
630.00000,10.00000,70.00000,-0.02188,2000.00000
650.00000,10.00000,70.00000,-0.03586,2000.00000
670.00000,10.00000,70.00000,-0.04603,2000.00000
690.00000,10.00000,70.00000,-0.05125,2000.00000
710.00000,10.00000,70.00000,-0.05707,2000.00000
730.00000,10.00000,70.00000,-0.05286,2000.00000
750.00000,10.00000,70.00000,-0.05265,2000.00000
770.00000,10.00000,70.00000,-0.04335,2000.00000
790.00000,10.00000,70.00000,-0.03871,2000.00000
810.00000,10.00000,70.00000,-0.02864,2000.00000
830.00000,10.00000,70.00000,-0.02195,2000.00000
850.00000,10.00000,70.00000,-0.01366,2000.00000
870.00000,10.00000,70.00000,-0.00680,2000.00000
890.00000,10.00000,70.00000,-0.00122,2000.00000
910.00000,10.00000,70.00000,0.00473,2000.00000
930.00000,10.00000,70.00000,0.00764,2000.00000
950.00000,10.00000,70.00000,0.01219,2000.00000
970.00000,10.00000,70.00000,0.01281,2000.00000
990.00000,10.00000,70.00000,0.01580,2000.00000
1010.00000,10.00000,70.00000,0.01450,2000.00000
1030.00000,10.00000,70.00000,0.01580,2000.00000
1050.00000,10.00000,70.00000,0.01281,2000.00000
1070.00000,10.00000,70.00000,0.01219,2000.00000
1090.00000,10.00000,70.00000,0.00764,2000.00000
1110.00000,10.00000,70.00000,0.00473,2000.00000
1130.00000,10.00000,70.00000,-0.00122,2000.00000
1150.00000,10.00000,70.00000,-0.00680,2000.00000
1170.00000,10.00000,70.00000,-0.01367,2000.00000
1190.00000,10.00000,70.00000,-0.02196,2000.00000
1210.00000,10.00000,70.00000,-0.02867,2000.00000
1230.00000,10.00000,70.00000,-0.03878,2000.00000
1250.00000,10.00000,70.00000,-0.04352,2000.00000
1270.00000,10.00000,70.00000,-0.05307,2000.00000
1290.00000,10.00000,70.00000,-0.05383,2000.00000
1310.00000,10.00000,70.00000,-0.05918,2000.00000
1330.00000,10.00000,70.00000,-0.05556,2000.00000
1350.00000,10.00000,70.00000,-0.05421,2000.00000
1370.00000,10.00000,70.00000,-0.05022,2000.00000
1390.00000,10.00000,70.00000,-0.04492,2000.00000
1410.00000,10.00000,70.00000,-0.04805,2000.00000
1430.00000,10.00000,70.00000,-0.04505,2000.00000
1450.00000,10.00000,70.00000,-0.05229,2000.00000
1470.00000,10.00000,70.00000,-0.04545,2000.00000
1490.00000,10.00000,70.00000,-0.02830,2000.00000
1510.00000,10.00000,70.00000,0.00259,2000.00000
1530.00000,10.00000,70.00000,0.05528,2000.00000
1550.00000,10.00000,70.00000,0.08534,2000.00000
1570.00000,10.00000,70.00000,0.09368,2000.00000
1590.00000,10.00000,70.00000,0.05463,2000.00000
1610.00000,10.00000,70.00000,-0.02122,2000.00000
1630.00000,10.00000,70.00000,-0.05922,2000.00000
1650.00000,10.00000,70.00000,-0.05764,2000.00000
1670.00000,10.00000,70.00000,-0.00061,2000.00000
1690.00000,10.00000,70.00000,0.07444,2000.00000
1710.00000,10.00000,70.00000,0.07179,2000.00000
1730.00000,10.00000,70.00000,0.04219,2000.00000
1750.00000,10.00000,70.00000,0.02034,2000.00000
1770.00000,10.00000,70.00000,-0.02981,2000.00000
1790.00000,10.00000,70.00000,-0.05620,2000.00000
1810.00000,10.00000,70.00000,-0.06320,2000.00000
1830.00000,10.00000,70.00000,-0.05072,2000.00000
1850.00000,10.00000,70.00000,0.08549,2000.00000
1870.00000,10.00000,70.00000,0.18788,2000.00000
1890.00000,10.00000,70.00000,0.00264,2000.00000
1910.00000,10.00000,70.00000,-0.20460,2000.00000
1930.00000,10.00000,70.00000,-0.06989,2000.00000
1950.00000,10.00000,70.00000,0.14213,2000.00000
1970.00000,10.00000,70.00000,0.06306,2000.00000
1990.00000,10.00000,70.00000,-0.08301,2000.00000
10.00000,10.00000,90.00000,-0.10694,2000.00000
30.00000,10.00000,90.00000,-0.00826,2000.00000
50.00000,10.00000,90.00000,0.11367,2000.00000
70.00000,10.00000,90.00000,0.01914,2000.00000
90.00000,10.00000,90.00000,-0.10161,2000.00000
110.00000,10.00000,90.00000,-0.00084,2000.00000
130.00000,10.00000,90.00000,0.08615,2000.00000
150.00000,10.00000,90.00000,-0.03972,2000.00000
170.00000,10.00000,90.00000,-0.08069,2000.00000
190.00000,10.00000,90.00000,0.06763,2000.00000
210.00000,10.00000,90.00000,0.09716,2000.00000
230.00000,10.00000,90.00000,-0.00106,2000.00000
250.00000,10.00000,90.00000,-0.03401,2000.00000
270.00000,10.00000,90.00000,-0.04500,2000.00000
290.00000,10.00000,90.00000,-0.03033,2000.00000
310.00000,10.00000,90.00000,0.03184,2000.00000
330.00000,10.00000,90.00000,0.02449,2000.00000
350.00000,10.00000,90.00000,0.00838,2000.00000
370.00000,10.00000,90.00000,0.05563,2000.00000
390.00000,10.00000,90.00000,0.08317,2000.00000
410.00000,10.00000,90.00000,0.10956,2000.00000
430.00000,10.00000,90.00000,0.10556,2000.00000
450.00000,10.00000,90.00000,0.03309,2000.00000
470.00000,10.00000,90.00000,-0.02795,2000.00000
490.00000,10.00000,90.00000,-0.09074,2000.00000
510.00000,10.00000,90.00000,-0.12929,2000.00000
530.00000,10.00000,90.00000,-0.12203,2000.00000
550.00000,10.00000,90.00000,-0.11540,2000.00000
570.00000,10.00000,90.00000,-0.08058,2000.00000
590.00000,10.00000,90.00000,-0.05400,2000.00000
610.00000,10.00000,90.00000,-0.03142,2000.00000
630.00000,10.00000,90.00000,-0.00546,2000.00000
650.00000,10.00000,90.00000,0.00082,2000.00000
670.00000,10.00000,90.00000,0.01773,2000.00000
690.00000,10.00000,90.00000,0.01685,2000.00000
710.00000,10.00000,90.00000,0.02281,2000.00000
730.00000,10.00000,90.00000,0.02130,2000.00000
750.00000,10.00000,90.00000,0.01829,2000.00000
770.00000,10.00000,90.00000,0.01816,2000.00000
790.00000,10.00000,90.00000,0.01001,2000.00000
810.00000,10.00000,90.00000,0.01113,2000.00000
830.00000,10.00000,90.00000,0.00142,2000.00000
850.00000,10.00000,90.00000,0.00321,2000.00000
870.00000,10.00000,90.00000,-0.00577,2000.00000
890.00000,10.00000,90.00000,-0.00370,2000.00000
910.00000,10.00000,90.00000,-0.01098,2000.00000
930.00000,10.00000,90.00000,-0.00874,2000.00000
950.00000,10.00000,90.00000,-0.01426,2000.00000
970.00000,10.00000,90.00000,-0.01172,2000.00000
990.00000,10.00000,90.00000,-0.01581,2000.00000
1010.00000,10.00000,90.00000,-0.01269,2000.00000
1030.00000,10.00000,90.00000,-0.01581,2000.00000
1050.00000,10.00000,90.00000,-0.01172,2000.00000
1070.00000,10.00000,90.00000,-0.01426,2000.00000
1090.00000,10.00000,90.00000,-0.00874,2000.00000
1110.00000,10.00000,90.00000,-0.01098,2000.00000
1130.00000,10.00000,90.00000,-0.00370,2000.00000
1150.00000,10.00000,90.00000,-0.00577,2000.00000
1170.00000,10.00000,90.00000,0.00320,2000.00000
1190.00000,10.00000,90.00000,0.00140,2000.00000
1210.00000,10.00000,90.00000,0.01108,2000.00000
1230.00000,10.00000,90.00000,0.00989,2000.00000
1250.00000,10.00000,90.00000,0.01787,2000.00000
1270.00000,10.00000,90.00000,0.01760,2000.00000
1290.00000,10.00000,90.00000,0.01976,2000.00000
1310.00000,10.00000,90.00000,0.01958,2000.00000
1330.00000,10.00000,90.00000,0.01050,2000.00000
1350.00000,10.00000,90.00000,0.00614,2000.00000
1370.00000,10.00000,90.00000,-0.01864,2000.00000
1390.00000,10.00000,90.00000,-0.03511,2000.00000
1410.00000,10.00000,90.00000,-0.07147,2000.00000
1430.00000,10.00000,90.00000,-0.09996,2000.00000
1450.00000,10.00000,90.00000,-0.12092,2000.00000
1470.00000,10.00000,90.00000,-0.13181,2000.00000
1490.00000,10.00000,90.00000,-0.09502,2000.00000
1510.00000,10.00000,90.00000,-0.04966,2000.00000
1530.00000,10.00000,90.00000,0.02785,2000.00000
1550.00000,10.00000,90.00000,0.09005,2000.00000
1570.00000,10.00000,90.00000,0.10137,2000.00000
1590.00000,10.00000,90.00000,0.09797,2000.00000
1610.00000,10.00000,90.00000,0.04769,2000.00000
1630.00000,10.00000,90.00000,0.02316,2000.00000
1650.00000,10.00000,90.00000,0.03583,2000.00000
1670.00000,10.00000,90.00000,0.00687,2000.00000
1690.00000,10.00000,90.00000,-0.01253,2000.00000
1710.00000,10.00000,90.00000,-0.04047,2000.00000
1730.00000,10.00000,90.00000,-0.05147,2000.00000
1750.00000,10.00000,90.00000,0.05374,2000.00000
1770.00000,10.00000,90.00000,0.10228,2000.00000
1790.00000,10.00000,90.00000,-0.00466,2000.00000
1810.00000,10.00000,90.00000,-0.07571,2000.00000
1830.00000,10.00000,90.00000,-0.06220,2000.00000
1850.00000,10.00000,90.00000,0.01350,2000.00000
1870.00000,10.00000,90.00000,0.14419,2000.00000
1890.00000,10.00000,90.00000,0.09730,2000.00000
1910.00000,10.00000,90.00000,-0.14486,2000.00000
1930.00000,10.00000,90.00000,-0.16447,2000.00000
1950.00000,10.00000,90.00000,0.07140,2000.00000
1970.00000,10.00000,90.00000,0.12987,2000.00000
1990.00000,10.00000,90.00000,0.00764,2000.00000
10.00000,10.00000,110.00000,-0.20238,2000.00000
30.00000,10.00000,110.00000,-0.04588,2000.00000
50.00000,10.00000,110.00000,0.10428,2000.00000
70.00000,10.00000,110.00000,0.00084,2000.00000
90.00000,10.00000,110.00000,-0.00084,2000.00000
110.00000,10.00000,110.00000,0.13324,2000.00000
130.00000,10.00000,110.00000,0.01458,2000.00000
150.00000,10.00000,110.00000,-0.19438,2000.00000
170.00000,10.00000,110.00000,-0.09889,2000.00000
190.00000,10.00000,110.00000,0.08711,2000.00000
210.00000,10.00000,110.00000,0.12176,2000.00000
230.00000,10.00000,110.00000,0.11600,2000.00000
250.00000,10.00000,110.00000,0.01963,2000.00000
270.00000,10.00000,110.00000,-0.12454,2000.00000
290.00000,10.00000,110.00000,-0.08015,2000.00000
310.00000,10.00000,110.00000,0.01126,2000.00000
330.00000,10.00000,110.00000,0.01506,2000.00000
350.00000,10.00000,110.00000,0.05829,2000.00000
370.00000,10.00000,110.00000,0.07460,2000.00000
390.00000,10.00000,110.00000,0.07675,2000.00000
410.00000,10.00000,110.00000,0.13206,2000.00000
430.00000,10.00000,110.00000,0.10699,2000.00000
450.00000,10.00000,110.00000,0.05014,2000.00000
470.00000,10.00000,110.00000,-0.01139,2000.00000
490.00000,10.00000,110.00000,-0.11085,2000.00000
510.00000,10.00000,110.00000,-0.14356,2000.00000
530.00000,10.00000,110.00000,-0.16187,2000.00000
550.00000,10.00000,110.00000,-0.15176,2000.00000
570.00000,10.00000,110.00000,-0.10320,2000.00000
590.00000,10.00000,110.00000,-0.08030,2000.00000
610.00000,10.00000,110.00000,-0.03028,2000.00000
630.00000,10.00000,110.00000,-0.00997,2000.00000
650.00000,10.00000,110.00000,0.01140,2000.00000
670.00000,10.00000,110.00000,0.02827,2000.00000
690.00000,10.00000,110.00000,0.02495,2000.00000
710.00000,10.00000,110.00000,0.03773,2000.00000
730.00000,10.00000,110.00000,0.02366,2000.00000
750.00000,10.00000,110.00000,0.03048,2000.00000
770.00000,10.00000,110.00000,0.01645,2000.00000
790.00000,10.00000,110.00000,0.01688,2000.00000
810.00000,10.00000,110.00000,0.00788,2000.00000
830.00000,10.00000,110.00000,0.00332,2000.00000
850.00000,10.00000,110.00000,0.00013,2000.00000
870.00000,10.00000,110.00000,-0.00741,2000.00000
890.00000,10.00000,110.00000,-0.00592,2000.00000
910.00000,10.00000,110.00000,-0.01472,2000.00000
930.00000,10.00000,110.00000,-0.01006,2000.00000
950.00000,10.00000,110.00000,-0.01904,2000.00000
970.00000,10.00000,110.00000,-0.01242,2000.00000
990.00000,10.00000,110.00000,-0.02100,2000.00000
1010.00000,10.00000,110.00000,-0.01318,2000.00000
1030.00000,10.00000,110.00000,-0.02100,2000.00000
1050.00000,10.00000,110.00000,-0.01242,2000.00000
1070.00000,10.00000,110.00000,-0.01904,2000.00000
1090.00000,10.00000,110.00000,-0.01006,2000.00000
1110.00000,10.00000,110.00000,-0.01472,2000.00000
1130.00000,10.00000,110.00000,-0.00592,2000.00000
1150.00000,10.00000,110.00000,-0.00741,2000.00000
1170.00000,10.00000,110.00000,0.00012,2000.00000
1190.00000,10.00000,110.00000,0.00329,2000.00000
1210.00000,10.00000,110.00000,0.00781,2000.00000
1230.00000,10.00000,110.00000,0.01669,2000.00000
1250.00000,10.00000,110.00000,0.01598,2000.00000
1270.00000,10.00000,110.00000,0.02939,2000.00000
1290.00000,10.00000,110.00000,0.02131,2000.00000
1310.00000,10.00000,110.00000,0.03296,2000.00000
1330.00000,10.00000,110.00000,0.01595,2000.00000
1350.00000,10.00000,110.00000,0.01253,2000.00000
1370.00000,10.00000,110.00000,-0.01374,2000.00000
1390.00000,10.00000,110.00000,-0.04607,2000.00000
1410.00000,10.00000,110.00000,-0.07552,2000.00000
1430.00000,10.00000,110.00000,-0.12690,2000.00000
1450.00000,10.00000,110.00000,-0.13622,2000.00000
1470.00000,10.00000,110.00000,-0.15210,2000.00000
1490.00000,10.00000,110.00000,-0.11505,2000.00000
1510.00000,10.00000,110.00000,-0.05211,2000.00000
1530.00000,10.00000,110.00000,-0.00180,2000.00000
1550.00000,10.00000,110.00000,0.07201,2000.00000
1570.00000,10.00000,110.00000,0.07570,2000.00000
1590.00000,10.00000,110.00000,0.08310,2000.00000
1610.00000,10.00000,110.00000,0.10792,2000.00000
1630.00000,10.00000,110.00000,0.09695,2000.00000
1650.00000,10.00000,110.00000,0.12110,2000.00000
1670.00000,10.00000,110.00000,0.05148,2000.00000
1690.00000,10.00000,110.00000,-0.09656,2000.00000
1710.00000,10.00000,110.00000,-0.13558,2000.00000
1730.00000,10.00000,110.00000,-0.11316,2000.00000
1750.00000,10.00000,110.00000,0.00902,2000.00000
1770.00000,10.00000,110.00000,0.17834,2000.00000
1790.00000,10.00000,110.00000,0.11895,2000.00000
1810.00000,10.00000,110.00000,-0.01450,2000.00000
1830.00000,10.00000,110.00000,-0.00393,2000.00000
1850.00000,10.00000,110.00000,-0.06578,2000.00000
1870.00000,10.00000,110.00000,-0.14426,2000.00000
1890.00000,10.00000,110.00000,0.02416,2000.00000
1910.00000,10.00000,110.00000,0.17712,2000.00000
1930.00000,10.00000,110.00000,0.04250,2000.00000
1950.00000,10.00000,110.00000,-0.10307,2000.00000
1970.00000,10.00000,110.00000,-0.04160,2000.00000
1990.00000,10.00000,110.00000,0.04071,2000.00000
10.00000,10.00000,130.00000,-0.04689,2000.00000
30.00000,10.00000,130.00000,-0.01967,2000.00000
50.00000,10.00000,130.00000,-0.01322,2000.00000
70.00000,10.00000,130.00000,0.01177,2000.00000
90.00000,10.00000,130.00000,0.08615,2000.00000
110.00000,10.00000,130.00000,0.01458,2000.00000
130.00000,10.00000,130.00000,-0.11172,2000.00000
150.00000,10.00000,130.00000,-0.00357,2000.00000
170.00000,10.00000,130.00000,0.10571,2000.00000
190.00000,10.00000,130.00000,-0.00352,2000.00000
210.00000,10.00000,130.00000,-0.01273,2000.00000
230.00000,10.00000,130.00000,0.05210,2000.00000
250.00000,10.00000,130.00000,-0.07238,2000.00000
270.00000,10.00000,130.00000,-0.09938,2000.00000
290.00000,10.00000,130.00000,0.05225,2000.00000
310.00000,10.00000,130.00000,0.09920,2000.00000
330.00000,10.00000,130.00000,0.13331,2000.00000
350.00000,10.00000,130.00000,0.12813,2000.00000
370.00000,10.00000,130.00000,-0.00891,2000.00000
390.00000,10.00000,130.00000,-0.03262,2000.00000