TITLE = "data/convFD358.dat"
VARIABLES = "x","y","z","Wavefield","Velocity"
ZONE T = "Frame 358", I = 100, J = 1, K = 100
10.00000,10.00000,10.00000,0.02713,2000.00000
30.00000,10.00000,10.00000,0.04675,2000.00000
50.00000,10.00000,10.00000,0.05104,2000.00000
70.00000,10.00000,10.00000,0.03365,2000.00000
90.00000,10.00000,10.00000,-0.00614,2000.00000
110.00000,10.00000,10.00000,-0.05882,2000.00000
130.00000,10.00000,10.00000,-0.10410,2000.00000
150.00000,10.00000,10.00000,-0.11786,2000.00000
170.00000,10.00000,10.00000,-0.08573,2000.00000
190.00000,10.00000,10.00000,-0.01546,2000.00000
210.00000,10.00000,10.00000,0.06221,2000.00000
230.00000,10.00000,10.00000,0.10846,2000.00000
250.00000,10.00000,10.00000,0.09897,2000.00000
270.00000,10.00000,10.00000,0.03899,2000.00000
290.00000,10.00000,10.00000,-0.03999,2000.00000
310.00000,10.00000,10.00000,-0.09897,2000.00000
330.00000,10.00000,10.00000,-0.11220,2000.00000
350.00000,10.00000,10.00000,-0.07778,2000.00000
370.00000,10.00000,10.00000,-0.01466,2000.00000
390.00000,10.00000,10.00000,0.04921,2000.00000
410.00000,10.00000,10.00000,0.09000,2000.00000
430.00000,10.00000,10.00000,0.09622,2000.00000
450.00000,10.00000,10.00000,0.07019,2000.00000
470.00000,10.00000,10.00000,0.02410,2000.00000
490.00000,10.00000,10.00000,-0.02615,2000.00000
510.00000,10.00000,10.00000,-0.06659,2000.00000
530.00000,10.00000,10.00000,-0.08863,2000.00000
550.00000,10.00000,10.00000,-0.08987,2000.00000
570.00000,10.00000,10.00000,-0.07312,2000.00000
590.00000,10.00000,10.00000,-0.04431,2000.00000
610.00000,10.00000,10.00000,-0.01038,2000.00000
630.00000,10.00000,10.00000,0.02244,2000.00000
650.00000,10.00000,10.00000,0.04954,2000.00000
670.00000,10.00000,10.00000,0.06834,2000.00000
690.00000,10.00000,10.00000,0.07808,2000.00000
710.00000,10.00000,10.00000,0.07940,2000.00000
730.00000,10.00000,10.00000,0.07379,2000.00000
750.00000,10.00000,10.00000,0.06317,2000.00000
770.00000,10.00000,10.00000,0.04943,2000.00000
790.00000,10.00000,10.00000,0.03427,2000.00000
810.00000,10.00000,10.00000,0.01903,2000.00000
830.00000,10.00000,10.00000,0.00466,2000.00000
850.00000,10.00000,10.00000,-0.00823,2000.00000
870.00000,10.00000,10.00000,-0.01934,2000.00000
890.00000,10.00000,10.00000,-0.02857,2000.00000
910.00000,10.00000,10.00000,-0.03598,2000.00000
930.00000,10.00000,10.00000,-0.04171,2000.00000
950.00000,10.00000,10.00000,-0.04592,2000.00000
970.00000,10.00000,10.00000,-0.04880,2000.00000
990.00000,10.00000,10.00000,-0.05046,2000.00000
1010.00000,10.00000,10.00000,-0.05101,2000.00000
1030.00000,10.00000,10.00000,-0.05046,2000.00000
1050.00000,10.00000,10.00000,-0.04880,2000.00000
1070.00000,10.00000,10.00000,-0.04592,2000.00000
1090.00000,10.00000,10.00000,-0.04171,2000.00000
1110.00000,10.00000,10.00000,-0.03598,2000.00000
1130.00000,10.00000,10.00000,-0.02857,2000.00000
1150.00000,10.00000,10.00000,-0.01934,2000.00000
1170.00000,10.00000,10.00000,-0.00823,2000.00000
1190.00000,10.00000,10.00000,0.00466,2000.00000
1210.00000,10.00000,10.00000,0.01903,2000.00000
1230.00000,10.00000,10.00000,0.03427,2000.00000
1250.00000,10.00000,10.00000,0.04943,2000.00000
1270.00000,10.00000,10.00000,0.06317,2000.00000
1290.00000,10.00000,10.00000,0.07379,2000.00000
1310.00000,10.00000,10.00000,0.07940,2000.00000
1330.00000,10.00000,10.00000,0.07808,2000.00000
1350.00000,10.00000,10.00000,0.06834,2000.00000
1370.00000,10.00000,10.00000,0.04954,2000.00000
1390.00000,10.00000,10.00000,0.02244,2000.00000
1410.00000,10.00000,10.00000,-0.01038,2000.00000
1430.00000,10.00000,10.00000,-0.04431,2000.00000
1450.00000,10.00000,10.00000,-0.07312,2000.00000
1470.00000,10.00000,10.00000,-0.08987,2000.00000
1490.00000,10.00000,10.00000,-0.08863,2000.00000
1510.00000,10.00000,10.00000,-0.06659,2000.00000
1530.00000,10.00000,10.00000,-0.02615,2000.00000
1550.00000,10.00000,10.00000,0.02410,2000.00000
1570.00000,10.00000,10.00000,0.07019,2000.00000
1590.00000,10.00000,10.00000,0.09622,2000.00000
1610.00000,10.00000,10.00000,0.09000,2000.00000
1630.00000,10.00000,10.00000,0.04921,2000.00000
1650.00000,10.00000,10.00000,-0.01466,2000.00000
1670.00000,10.00000,10.00000,-0.07778,2000.00000
1690.00000,10.00000,10.00000,-0.11220,2000.00000
1710.00000,10.00000,10.00000,-0.09897,2000.00000
1730.00000,10.00000,10.00000,-0.03999,2000.00000
1750.00000,10.00000,10.00000,0.03899,2000.00000
1770.00000,10.00000,10.00000,0.09896,2000.00000
1790.00000,10.00000,10.00000,0.10844,2000.00000
1810.00000,10.00000,10.00000,0.06217,2000.00000
1830.00000,10.00000,10.00000,-0.01559,2000.00000
1850.00000,10.00000,10.00000,-0.08604,2000.00000
1870.00000,10.00000,10.00000,-0.11858,2000.00000
1890.00000,10.00000,10.00000,-0.10569,2000.00000
1910.00000,10.00000,10.00000,-0.06209,2000.00000
1930.00000,10.00000,10.00000,-0.01235,2000.00000
1950.00000,10.00000,10.00000,0.02285,2000.00000
1970.00000,10.00000,10.00000,0.03411,2000.00000
1990.00000,10.00000,10.00000,0.02337,2000.00000
10.00000,10.00000,30.00000,0.04675,2000.00000
30.00000,10.00000,30.00000,0.07770,2000.00000
50.00000,10.00000,30.00000,0.07883,2000.00000
70.00000,10.00000,30.00000,0.04229,2000.00000
90.00000,10.00000,30.00000,-0.02704,2000.00000
110.00000,10.00000,30.00000,-0.10740,2000.00000
130.00000,10.00000,30.00000,-0.16477,2000.00000
150.00000,10.00000,30.00000,-0.16836,2000.00000
170.00000,10.00000,30.00000,-0.11014,2000.00000
190.00000,10.00000,30.00000,-0.01441,2000.00000
210.00000,10.00000,30.00000,0.07294,2000.00000
230.00000,10.00000,30.00000,0.11095,2000.00000
250.00000,10.00000,30.00000,0.08755,2000.00000
270.00000,10.00000,30.00000,0.02381,2000.00000
290.00000,10.00000,30.00000,-0.04283,2000.00000
310.00000,10.00000,30.00000,-0.08139,2000.00000
330.00000,10.00000,30.00000,-0.08110,2000.00000
350.00000,10.00000,30.00000,-0.05084,2000.00000
370.00000,10.00000,30.00000,-0.00961,2000.00000
390.00000,10.00000,30.00000,0.02451,2000.00000
410.00000,10.00000,30.00000,0.04127,2000.00000
430.00000,10.00000,30.00000,0.03967,2000.00000
450.00000,10.00000,30.00000,0.02515,2000.00000
470.00000,10.00000,30.00000,0.00560,2000.00000
490.00000,10.00000,30.00000,-0.01206,2000.00000
510.00000,10.00000,30.00000,-0.02369,2000.00000
530.00000,10.00000,30.00000,-0.02812,2000.00000
550.00000,10.00000,30.00000,-0.02639,2000.00000
570.00000,10.00000,30.00000,-0.02066,2000.00000
590.00000,10.00000,30.00000,-0.01326,2000.00000
610.00000,10.00000,30.00000,-0.00605,2000.00000
630.00000,10.00000,30.00000,-0.00021,2000.00000
650.00000,10.00000,30.00000,0.00377,2000.00000
670.00000,10.00000,30.00000,0.00591,2000.00000
690.00000,10.00000,30.00000,0.00655,2000.00000
710.00000,10.00000,30.00000,0.00613,2000.00000
730.00000,10.00000,30.00000,0.00508,2000.00000
750.00000,10.00000,30.00000,0.00377,2000.00000
770.00000,10.00000,30.00000,0.00246,2000.00000
790.00000,10.00000,30.00000,0.00129,2000.00000
810.00000,10.00000,30.00000,0.00033,2000.00000
830.00000,10.00000,30.00000,-0.00040,2000.00000
850.00000,10.00000,30.00000,-0.00092,2000.00000
870.00000,10.00000,30.00000,-0.00126,2000.00000
890.00000,10.00000,30.00000,-0.00148,2000.00000
910.00000,10.00000,30.00000,-0.00160,2000.00000
930.00000,10.00000,30.00000,-0.00166,2000.00000
950.00000,10.00000,30.00000,-0.00169,2000.00000
970.00000,10.00000,30.00000,-0.00169,2000.00000
990.00000,10.00000,30.00000,-0.00169,2000.00000
1010.00000,10.00000,30.00000,-0.00169,2000.00000
1030.00000,10.00000,30.00000,-0.00169,2000.00000
1050.00000,10.00000,30.00000,-0.00169,2000.00000
1070.00000,10.00000,30.00000,-0.00169,2000.00000
1090.00000,10.00000,30.00000,-0.00166,2000.00000
1110.00000,10.00000,30.00000,-0.00160,2000.00000
1130.00000,10.00000,30.00000,-0.00148,2000.00000
1150.00000,10.00000,30.00000,-0.00126,2000.00000
1170.00000,10.00000,30.00000,-0.00092,2000.00000
1190.00000,10.00000,30.00000,-0.00040,2000.00000
1210.00000,10.00000,30.00000,0.00033,2000.00000
1230.00000,10.00000,30.00000,0.00129,2000.00000
1250.00000,10.00000,30.00000,0.00246,2000.00000
1270.00000,10.00000,30.00000,0.00377,2000.00000
1290.00000,10.00000,30.00000,0.00508,2000.00000
1310.00000,10.00000,30.00000,0.00613,2000.00000
1330.00000,10.00000,30.00000,0.00655,2000.00000
1350.00000,10.00000,30.00000,0.00591,2000.00000
1370.00000,10.00000,30.00000,0.00377,2000.00000
1390.00000,10.00000,30.00000,-0.00021,2000.00000
1410.00000,10.00000,30.00000,-0.00605,2000.00000
1430.00000,10.00000,30.00000,-0.01326,2000.00000
1450.00000,10.00000,30.00000,-0.02066,2000.00000
1470.00000,10.00000,30.00000,-0.02639,2000.00000
1490.00000,10.00000,30.00000,-0.02812,2000.00000
1510.00000,10.00000,30.00000,-0.02369,2000.00000
1530.00000,10.00000,30.00000,-0.01206,2000.00000
1550.00000,10.00000,30.00000,0.00561,2000.00000
1570.00000,10.00000,30.00000,0.02515,2000.00000
1590.00000,10.00000,30.00000,0.03967,2000.00000
1610.00000,10.00000,30.00000,0.04127,2000.00000
1630.00000,10.00000,30.00000,0.02451,2000.00000
1650.00000,10.00000,30.00000,-0.00961,2000.00000
1670.00000,10.00000,30.00000,-0.05084,2000.00000
1690.00000,10.00000,30.00000,-0.08110,2000.00000
1710.00000,10.00000,30.00000,-0.08139,2000.00000
1730.00000,10.00000,30.00000,-0.04283,2000.00000
1750.00000,10.00000,30.00000,0.02380,2000.00000
1770.00000,10.00000,30.00000,0.08754,2000.00000
1790.00000,10.00000,30.00000,0.11090,2000.00000
1810.00000,10.00000,30.00000,0.07282,2000.00000
1830.00000,10.00000,30.00000,-0.01473,2000.00000
1850.00000,10.00000,30.00000,-0.11093,2000.00000
1870.00000,10.00000,30.00000,-0.17015,2000.00000
1890.00000,10.00000,30.00000,-0.16859,2000.00000
1910.00000,10.00000,30.00000,-0.11497,2000.00000
1930.00000,10.00000,30.00000,-0.04083,2000.00000
1950.00000,10.00000,30.00000,0.01938,2000.00000
1970.00000,10.00000,30.00000,0.04475,2000.00000
1990.00000,10.00000,30.00000,0.03358,2000.00000
10.00000,10.00000,50.00000,0.05104,2000.00000
30.00000,10.00000,50.00000,0.07883,2000.00000
50.00000,10.00000,50.00000,0.06733,2000.00000
70.00000,10.00000,50.00000,0.01504,2000.00000
90.00000,10.00000,50.00000,-0.06052,2000.00000
110.00000,10.00000,50.00000,-0.12715,2000.00000
130.00000,10.00000,50.00000,-0.15340,2000.00000
150.00000,10.00000,50.00000,-0.12840,2000.00000
170.00000,10.00000,50.00000,-0.07104,2000.00000
190.00000,10.00000,50.00000,-0.01783,2000.00000
210.00000,10.00000,50.00000,0.00399,2000.00000
230.00000,10.00000,50.00000,-0.00414,2000.00000
250.00000,10.00000,50.00000,-0.01764,2000.00000
270.00000,10.00000,50.00000,-0.01328,2000.00000
290.00000,10.00000,50.00000,0.01103,2000.00000
310.00000,10.00000,50.00000,0.03735,2000.00000
330.00000,10.00000,50.00000,0.04450,2000.00000
350.00000,10.00000,50.00000,0.02374,2000.00000
370.00000,10.00000,50.00000,-0.01686,2000.00000
390.00000,10.00000,50.00000,-0.05870,2000.00000
410.00000,10.00000,50.00000,-0.08334,2000.00000
430.00000,10.00000,50.00000,-0.08109,2000.00000
450.00000,10.00000,50.00000,-0.05365,2000.00000
470.00000,10.00000,50.00000,-0.01142,2000.00000
490.00000,10.00000,50.00000,0.03181,2000.00000
510.00000,10.00000,50.00000,0.06403,2000.00000
530.00000,10.00000,50.00000,0.07823,2000.00000
550.00000,10.00000,50.00000,0.07317,2000.00000
570.00000,10.00000,50.00000,0.05230,2000.00000
590.00000,10.00000,50.00000,0.02179,2000.00000
610.00000,10.00000,50.00000,-0.01158,2000.00000
630.00000,10.00000,50.00000,-0.04198,2000.00000
650.00000,10.00000,50.00000,-0.06539,2000.00000
670.00000,10.00000,50.00000,-0.07983,2000.00000
690.00000,10.00000,50.00000,-0.08509,2000.00000
710.00000,10.00000,50.00000,-0.08222,2000.00000
730.00000,10.00000,50.00000,-0.07303,2000.00000
750.00000,10.00000,50.00000,-0.05957,2000.00000
770.00000,10.00000,50.00000,-0.04380,2000.00000
790.00000,10.00000,50.00000,-0.02735,2000.00000
810.00000,10.00000,50.00000,-0.01146,2000.00000
830.00000,10.00000,50.00000,0.00305,2000.00000
850.00000,10.00000,50.00000,0.01571,2000.00000
870.00000,10.00000,50.00000,0.02634,2000.00000
890.00000,10.00000,50.00000,0.03496,2000.00000
910.00000,10.00000,50.00000,0.04172,2000.00000
930.00000,10.00000,50.00000,0.04684,2000.00000
950.00000,10.00000,50.00000,0.05053,2000.00000
970.00000,10.00000,50.00000,0.05300,2000.00000
990.00000,10.00000,50.00000,0.05441,2000.00000
1010.00000,10.00000,50.00000,0.05487,2000.00000
1030.00000,10.00000,50.00000,0.05441,2000.00000
1050.00000,10.00000,50.00000,0.05300,2000.00000
1070.00000,10.00000,50.00000,0.05053,2000.00000
1090.00000,10.00000,50.00000,0.04684,2000.00000
1110.00000,10.00000,50.00000,0.04172,2000.00000
1130.00000,10.00000,50.00000,0.03496,2000.00000
1150.00000,10.00000,50.00000,0.02634,2000.00000
1170.00000,10.00000,50.00000,0.01571,2000.00000
1190.00000,10.00000,50.00000,0.00305,2000.00000
1210.00000,10.00000,50.00000,-0.01146,2000.00000
1230.00000,10.00000,50.00000,-0.02735,2000.00000
1250.00000,10.00000,50.00000,-0.04380,2000.00000
1270.00000,10.00000,50.00000,-0.05957,2000.00000
1290.00000,10.00000,50.00000,-0.07303,2000.00000
1310.00000,10.00000,50.00000,-0.08222,2000.00000
1330.00000,10.00000,50.00000,-0.08509,2000.00000
1350.00000,10.00000,50.00000,-0.07983,2000.00000
1370.00000,10.00000,50.00000,-0.06539,2000.00000
1390.00000,10.00000,50.00000,-0.04198,2000.00000
1410.00000,10.00000,50.00000,-0.01158,2000.00000
1430.00000,10.00000,50.00000,0.02179,2000.00000
1450.00000,10.00000,50.00000,0.05230,2000.00000
1470.00000,10.00000,50.00000,0.07317,2000.00000
1490.00000,10.00000,50.00000,0.07823,2000.00000
1510.00000,10.00000,50.00000,0.06403,2000.00000
1530.00000,10.00000,50.00000,0.03181,2000.00000
1550.00000,10.00000,50.00000,-0.01142,2000.00000
1570.00000,10.00000,50.00000,-0.05365,2000.00000
1590.00000,10.00000,50.00000,-0.08109,2000.00000
1610.00000,10.00000,50.00000,-0.08334,2000.00000
1630.00000,10.00000,50.00000,-0.05870,2000.00000
1650.00000,10.00000,50.00000,-0.01686,2000.00000
1670.00000,10.00000,50.00000,0.02374,2000.00000
1690.00000,10.00000,50.00000,0.04450,2000.00000
1710.00000,10.00000,50.00000,0.03735,2000.00000
1730.00000,10.00000,50.00000,0.01102,2000.00000
1750.00000,10.00000,50.00000,-0.01329,2000.00000
1770.00000,10.00000,50.00000,-0.01768,2000.00000
1790.00000,10.00000,50.00000,-0.00425,2000.00000
1810.00000,10.00000,50.00000,0.00370,2000.00000
1830.00000,10.00000,50.00000,-0.01855,2000.00000
1850.00000,10.00000,50.00000,-0.07271,2000.00000
1870.00000,10.00000,50.00000,-0.13204,2000.00000
1890.00000,10.00000,50.00000,-0.16078,2000.00000
1910.00000,10.00000,50.00000,-0.14100,2000.00000
1930.00000,10.00000,50.00000,-0.08428,2000.00000
1950.00000,10.00000,50.00000,-0.02172,2000.00000
1970.00000,10.00000,50.00000,0.01713,2000.00000
1990.00000,10.00000,50.00000,0.02086,2000.00000
10.00000,10.00000,70.00000,0.03365,2000.00000
30.00000,10.00000,70.00000,0.04229,2000.00000
50.00000,10.00000,70.00000,0.01504,2000.00000
70.00000,10.00000,70.00000,-0.03693,2000.00000
90.00000,10.00000,70.00000,-0.08467,2000.00000
110.00000,10.00000,70.00000,-0.09949,2000.00000
130.00000,10.00000,70.00000,-0.07561,2000.00000
150.00000,10.00000,70.00000,-0.03879,2000.00000
170.00000,10.00000,70.00000,-0.02799,2000.00000
190.00000,10.00000,70.00000,-0.06054,2000.00000
210.00000,10.00000,70.00000,-0.11201,2000.00000
230.00000,10.00000,70.00000,-0.13384,2000.00000
250.00000,10.00000,70.00000,-0.09559,2000.00000
270.00000,10.00000,70.00000,-0.01167,2000.00000
290.00000,10.00000,70.00000,0.07115,2000.00000
310.00000,10.00000,70.00000,0.10974,2000.00000
330.00000,10.00000,70.00000,0.09066,2000.00000
350.00000,10.00000,70.00000,0.03107,2000.00000
370.00000,10.00000,70.00000,-0.03703,2000.00000
390.00000,10.00000,70.00000,-0.08505,2000.00000
410.00000,10.00000,70.00000,-0.09923,2000.00000
430.00000,10.00000,70.00000,-0.08203,2000.00000
450.00000,10.00000,70.00000,-0.04613,2000.00000
470.00000,10.00000,70.00000,-0.00669,2000.00000
490.00000,10.00000,70.00000,0.02438,2000.00000
510.00000,10.00000,70.00000,0.04121,2000.00000
530.00000,10.00000,70.00000,0.04358,2000.00000
550.00000,10.00000,70.00000,0.03498,2000.00000
570.00000,10.00000,70.00000,0.02040,2000.00000
590.00000,10.00000,70.00000,0.00449,2000.00000
610.00000,10.00000,70.00000,-0.00938,2000.00000
630.00000,10.00000,70.00000,-0.01943,2000.00000
650.00000,10.00000,70.00000,-0.02525,2000.00000
670.00000,10.00000,70.00000,-0.02730,2000.00000
690.00000,10.00000,70.00000,-0.02655,2000.00000
710.00000,10.00000,70.00000,-0.02403,2000.00000
730.00000,10.00000,70.00000,-0.02067,2000.00000
750.00000,10.00000,70.00000,-0.01715,2000.00000
770.00000,10.00000,70.00000,-0.01393,2000.00000
790.00000,10.00000,70.00000,-0.01123,2000.00000
810.00000,10.00000,70.00000,-0.00912,2000.00000
830.00000,10.00000,70.00000,-0.00756,2000.00000
850.00000,10.00000,70.00000,-0.00649,2000.00000
870.00000,10.00000,70.00000,-0.00578,2000.00000
890.00000,10.00000,70.00000,-0.00535,2000.00000
910.00000,10.00000,70.00000,-0.00510,2000.00000
930.00000,10.00000,70.00000,-0.00498,2000.00000
950.00000,10.00000,70.00000,-0.00492,2000.00000
970.00000,10.00000,70.00000,-0.00491,2000.00000
990.00000,10.00000,70.00000,-0.00490,2000.00000
1010.00000,10.00000,70.00000,-0.00490,2000.00000
1030.00000,10.00000,70.00000,-0.00490,2000.00000
1050.00000,10.00000,70.00000,-0.00491,2000.00000
1070.00000,10.00000,70.00000,-0.00492,2000.00000
1090.00000,10.00000,70.00000,-0.00498,2000.00000
1110.00000,10.00000,70.00000,-0.00510,2000.00000
1130.00000,10.00000,70.00000,-0.00535,2000.00000
1150.00000,10.00000,70.00000,-0.00578,2000.00000
1170.00000,10.00000,70.00000,-0.00649,2000.00000
1190.00000,10.00000,70.00000,-0.00756,2000.00000
1210.00000,10.00000,70.00000,-0.00912,2000.00000
1230.00000,10.00000,70.00000,-0.01123,2000.00000
1250.00000,10.00000,70.00000,-0.01393,2000.00000
1270.00000,10.00000,70.00000,-0.01715,2000.00000
1290.00000,10.00000,70.00000,-0.02067,2000.00000
1310.00000,10.00000,70.00000,-0.02403,2000.00000
1330.00000,10.00000,70.00000,-0.02655,2000.00000
1350.00000,10.00000,70.00000,-0.02730,2000.00000
1370.00000,10.00000,70.00000,-0.02525,2000.00000
1390.00000,10.00000,70.00000,-0.01943,2000.00000
1410.00000,10.00000,70.00000,-0.00938,2000.00000
1430.00000,10.00000,70.00000,0.00449,2000.00000
1450.00000,10.00000,70.00000,0.02040,2000.00000
1470.00000,10.00000,70.00000,0.03498,2000.00000
1490.00000,10.00000,70.00000,0.04358,2000.00000
1510.00000,10.00000,70.00000,0.04121,2000.00000
1530.00000,10.00000,70.00000,0.02438,2000.00000
1550.00000,10.00000,70.00000,-0.00669,2000.00000
1570.00000,10.00000,70.00000,-0.04613,2000.00000
1590.00000,10.00000,70.00000,-0.08203,2000.00000
1610.00000,10.00000,70.00000,-0.09923,2000.00000
1630.00000,10.00000,70.00000,-0.08505,2000.00000
1650.00000,10.00000,70.00000,-0.03704,2000.00000
1670.00000,10.00000,70.00000,0.03107,2000.00000
1690.00000,10.00000,70.00000,0.09066,2000.00000
1710.00000,10.00000,70.00000,0.10974,2000.00000
1730.00000,10.00000,70.00000,0.07114,2000.00000
1750.00000,10.00000,70.00000,-0.01170,2000.00000
1770.00000,10.00000,70.00000,-0.09568,2000.00000
1790.00000,10.00000,70.00000,-0.13409,2000.00000
1810.00000,10.00000,70.00000,-0.11262,2000.00000
1830.00000,10.00000,70.00000,-0.06201,2000.00000
1850.00000,10.00000,70.00000,-0.03126,2000.00000
1870.00000,10.00000,70.00000,-0.04556,2000.00000
1890.00000,10.00000,70.00000,-0.08859,2000.00000
1910.00000,10.00000,70.00000,-0.12227,2000.00000
1930.00000,10.00000,70.00000,-0.12086,2000.00000
1950.00000,10.00000,70.00000,-0.08793,2000.00000
1970.00000,10.00000,70.00000,-0.04650,2000.00000
1990.00000,10.00000,70.00000,-0.01652,2000.00000
10.00000,10.00000,90.00000,-0.00614,2000.00000
30.00000,10.00000,90.00000,-0.02704,2000.00000
50.00000,10.00000,90.00000,-0.06052,2000.00000
70.00000,10.00000,90.00000,-0.08467,2000.00000
90.00000,10.00000,90.00000,-0.07462,2000.00000
110.00000,10.00000,90.00000,-0.02874,2000.00000
130.00000,10.00000,90.00000,0.01953,2000.00000
150.00000,10.00000,90.00000,0.02255,2000.00000
170.00000,10.00000,90.00000,-0.03836,2000.00000
190.00000,10.00000,90.00000,-0.12769,2000.00000
210.00000,10.00000,90.00000,-0.17999,2000.00000
230.00000,10.00000,90.00000,-0.15643,2000.00000
250.00000,10.00000,90.00000,-0.07748,2000.00000
270.00000,10.00000,90.00000,0.00068,2000.00000
290.00000,10.00000,90.00000,0.03689,2000.00000
310.00000,10.00000,90.00000,0.03050,2000.00000
330.00000,10.00000,90.00000,0.00723,2000.00000
350.00000,10.00000,90.00000,-0.00773,2000.00000
370.00000,10.00000,90.00000,-0.00498,2000.00000
390.00000,10.00000,90.00000,0.00863,2000.00000
410.00000,10.00000,90.00000,0.01888,2000.00000
430.00000,10.00000,90.00000,0.01510,2000.00000
450.00000,10.00000,90.00000,-0.00416,2000.00000
470.00000,10.00000,90.00000,-0.03237,2000.00000
490.00000,10.00000,90.00000,-0.05920,2000.00000
510.00000,10.00000,90.00000,-0.07535,2000.00000
530.00000,10.00000,90.00000,-0.07596,2000.00000
550.00000,10.00000,90.00000,-0.06118,2000.00000
570.00000,10.00000,90.00000,-0.03514,2000.00000
590.00000,10.00000,90.00000,-0.00402,2000.00000
610.00000,10.00000,90.00000,0.02602,2000.00000
630.00000,10.00000,90.00000,0.05013,2000.00000
650.00000,10.00000,90.00000,0.06547,2000.00000
670.00000,10.00000,90.00000,0.07126,2000.00000
690.00000,10.00000,90.00000,0.06824,2000.00000
710.00000,10.00000,90.00000,0.05821,2000.00000
730.00000,10.00000,90.00000,0.04339,2000.00000
750.00000,10.00000,90.00000,0.02598,2000.00000
770.00000,10.00000,90.00000,0.00790,2000.00000
790.00000,10.00000,90.00000,-0.00944,2000.00000
810.00000,10.00000,90.00000,-0.02506,2000.00000
830.00000,10.00000,90.00000,-0.03845,2000.00000
850.00000,10.00000,90.00000,-0.04945,2000.00000
870.00000,10.00000,90.00000,-0.05812,2000.00000
890.00000,10.00000,90.00000,-0.06472,2000.00000
910.00000,10.00000,90.00000,-0.06955,2000.00000
930.00000,10.00000,90.00000,-0.07295,2000.00000
950.00000,10.00000,90.00000,-0.07523,2000.00000
970.00000,10.00000,90.00000,-0.07667,2000.00000
990.00000,10.00000,90.00000,-0.07745,2000.00000
1010.00000,10.00000,90.00000,-0.07769,2000.00000
1030.00000,10.00000,90.00000,-0.07745,2000.00000
1050.00000,10.00000,90.00000,-0.07667,2000.00000
1070.00000,10.00000,90.00000,-0.07523,2000.00000
1090.00000,10.00000,90.00000,-0.07295,2000.00000
1110.00000,10.00000,90.00000,-0.06955,2000.00000
1130.00000,10.00000,90.00000,-0.06472,2000.00000
1150.00000,10.00000,90.00000,-0.05812,2000.00000
1170.00000,10.00000,90.00000,-0.04945,2000.00000
1190.00000,10.00000,90.00000,-0.03845,2000.00000
1210.00000,10.00000,90.00000,-0.02506,2000.00000
1230.00000,10.00000,90.00000,-0.00944,2000.00000
1250.00000,10.00000,90.00000,0.00790,2000.00000
1270.00000,10.00000,90.00000,0.02598,2000.00000
1290.00000,10.00000,90.00000,0.04339,2000.00000
1310.00000,10.00000,90.00000,0.05821,2000.00000
1330.00000,10.00000,90.00000,0.06824,2000.00000
1350.00000,10.00000,90.00000,0.07126,2000.00000
1370.00000,10.00000,90.00000,0.06547,2000.00000
1390.00000,10.00000,90.00000,0.05013,2000.00000
1410.00000,10.00000,90.00000,0.02602,2000.00000
1430.00000,10.00000,90.00000,-0.00402,2000.00000
1450.00000,10.00000,90.00000,-0.03514,2000.00000
1470.00000,10.00000,90.00000,-0.06118,2000.00000
1490.00000,10.00000,90.00000,-0.07596,2000.00000
1510.00000,10.00000,90.00000,-0.07535,2000.00000
1530.00000,10.00000,90.00000,-0.05920,2000.00000
1550.00000,10.00000,90.00000,-0.03237,2000.00000
1570.00000,10.00000,90.00000,-0.00416,2000.00000
1590.00000,10.00000,90.00000,0.01510,2000.00000
1610.00000,10.00000,90.00000,0.01888,2000.00000
1630.00000,10.00000,90.00000,0.00863,2000.00000
1650.00000,10.00000,90.00000,-0.00498,2000.00000
1670.00000,10.00000,90.00000,-0.00773,2000.00000
1690.00000,10.00000,90.00000,0.00722,2000.00000
1710.00000,10.00000,90.00000,0.03049,2000.00000
1730.00000,10.00000,90.00000,0.03686,2000.00000
1750.00000,10.00000,90.00000,0.00060,2000.00000
1770.00000,10.00000,90.00000,-0.07769,2000.00000
1790.00000,10.00000,90.00000,-0.15695,2000.00000
1810.00000,10.00000,90.00000,-0.18125,2000.00000
1830.00000,10.00000,90.00000,-0.13054,2000.00000
1850.00000,10.00000,90.00000,-0.04439,2000.00000
1870.00000,10.00000,90.00000,0.01077,2000.00000
1890.00000,10.00000,90.00000,-0.00161,2000.00000
1910.00000,10.00000,90.00000,-0.06311,2000.00000
1930.00000,10.00000,90.00000,-0.12435,2000.00000
1950.00000,10.00000,90.00000,-0.14664,2000.00000
1970.00000,10.00000,90.00000,-0.12275,2000.00000
1990.00000,10.00000,90.00000,-0.06779,2000.00000
10.00000,10.00000,110.00000,-0.05882,2000.00000
30.00000,10.00000,110.00000,-0.10740,2000.00000
50.00000,10.00000,110.00000,-0.12715,2000.00000
70.00000,10.00000,110.00000,-0.09949,2000.00000
90.00000,10.00000,110.00000,-0.02874,2000.00000
110.00000,10.00000,110.00000,0.04448,2000.00000
130.00000,10.00000,110.00000,0.06411,2000.00000
150.00000,10.00000,110.00000,0.00705,2000.00000
170.00000,10.00000,110.00000,-0.08687,2000.00000
190.00000,10.00000,110.00000,-0.14432,2000.00000
210.00000,10.00000,110.00000,-0.12783,2000.00000
230.00000,10.00000,110.00000,-0.07133,2000.00000
250.00000,10.00000,110.00000,-0.03959,2000.00000
270.00000,10.00000,110.00000,-0.05850,2000.00000
290.00000,10.00000,110.00000,-0.09603,2000.00000
310.00000,10.00000,110.00000,-0.10479,2000.00000
330.00000,10.00000,110.00000,-0.06685,2000.00000
350.00000,10.00000,110.00000,0.00031,2000.00000
370.00000,10.00000,110.00000,0.06343,2000.00000
390.00000,10.00000,110.00000,0.09443,2000.00000
410.00000,10.00000,110.00000,0.08376,2000.00000
430.00000,10.00000,110.00000,0.04146,2000.00000
450.00000,10.00000,110.00000,-0.01271,2000.00000
470.00000,10.00000,110.00000,-0.05971,2000.00000
490.00000,10.00000,110.00000,-0.08725,2000.00000
510.00000,10.00000,110.00000,-0.09221,2000.00000
530.00000,10.00000,110.00000,-0.07864,2000.00000
550.00000,10.00000,110.00000,-0.05406,2000.00000
570.00000,10.00000,110.00000,-0.02645,2000.00000
590.00000,10.00000,110.00000,-0.00198,2000.00000
610.00000,10.00000,110.00000,0.01591,2000.00000
630.00000,10.00000,110.00000,0.02611,2000.00000
650.00000,10.00000,110.00000,0.02942,2000.00000
670.00000,10.00000,110.00000,0.02752,2000.00000
690.00000,10.00000,110.00000,0.02236,2000.00000
710.00000,10.00000,110.00000,0.01572,2000.00000
730.00000,10.00000,110.00000,0.00890,2000.00000
750.00000,10.00000,110.00000,0.00277,2000.00000
770.00000,10.00000,110.00000,-0.00227,2000.00000
790.00000,10.00000,110.00000,-0.00609,2000.00000
810.00000,10.00000,110.00000,-0.00877,2000.00000
830.00000,10.00000,110.00000,-0.01052,2000.00000
850.00000,10.00000,110.00000,-0.01154,2000.00000
870.00000,10.00000,110.00000,-0.01207,2000.00000
890.00000,10.00000,110.00000,-0.01225,2000.00000
910.00000,10.00000,110.00000,-0.01224,2000.00000
930.00000,10.00000,110.00000,-0.01214,2000.00000
950.00000,10.00000,110.00000,-0.01201,2000.00000
970.00000,10.00000,110.00000,-0.01189,2000.00000
990.00000,10.00000,110.00000,-0.01181,2000.00000
1010.00000,10.00000,110.00000,-0.01178,2000.00000
1030.00000,10.00000,110.00000,-0.01181,2000.00000
1050.00000,10.00000,110.00000,-0.01189,2000.00000
1070.00000,10.00000,110.00000,-0.01201,2000.00000
1090.00000,10.00000,110.00000,-0.01214,2000.00000
1110.00000,10.00000,110.00000,-0.01224,2000.00000
1130.00000,10.00000,110.00000,-0.01225,2000.00000
1150.00000,10.00000,110.00000,-0.01207,2000.00000
1170.00000,10.00000,110.00000,-0.01154,2000.00000
1190.00000,10.00000,110.00000,-0.01052,2000.00000
1210.00000,10.00000,110.00000,-0.00877,2000.00000
1230.00000,10.00000,110.00000,-0.00609,2000.00000
1250.00000,10.00000,110.00000,-0.00227,2000.00000
1270.00000,10.00000,110.00000,0.00277,2000.00000
1290.00000,10.00000,110.00000,0.00890,2000.00000
1310.00000,10.00000,110.00000,0.01572,2000.00000
1330.00000,10.00000,110.00000,0.02236,2000.00000
1350.00000,10.00000,110.00000,0.02752,2000.00000
1370.00000,10.00000,110.00000,0.02942,2000.00000
1390.00000,10.00000,110.00000,0.02611,2000.00000
1410.00000,10.00000,110.00000,0.01591,2000.00000
1430.00000,10.00000,110.00000,-0.00198,2000.00000
1450.00000,10.00000,110.00000,-0.02645,2000.00000
1470.00000,10.00000,110.00000,-0.05406,2000.00000
1490.00000,10.00000,110.00000,-0.07864,2000.00000
1510.00000,10.00000,110.00000,-0.09221,2000.00000
1530.00000,10.00000,110.00000,-0.08725,2000.00000
1550.00000,10.00000,110.00000,-0.05971,2000.00000
1570.00000,10.00000,110.00000,-0.01271,2000.00000
1590.00000,10.00000,110.00000,0.04146,2000.00000
1610.00000,10.00000,110.00000,0.08376,2000.00000
1630.00000,10.00000,110.00000,0.09443,2000.00000
1650.00000,10.00000,110.00000,0.06343,2000.00000
1670.00000,10.00000,110.00000,0.00030,2000.00000
1690.00000,10.00000,110.00000,-0.06685,2000.00000
1710.00000,10.00000,110.00000,-0.10481,2000.00000
1730.00000,10.00000,110.00000,-0.09608,2000.00000
1750.00000,10.00000,110.00000,-0.05866,2000.00000
1770.00000,10.00000,110.00000,-0.04002,2000.00000
1790.00000,10.00000,110.00000,-0.07238,2000.00000
1810.00000,10.00000,110.00000,-0.13025,2000.00000
1830.00000,10.00000,110.00000,-0.14954,2000.00000
1850.00000,10.00000,110.00000,-0.09730,2000.00000
1870.00000,10.00000,110.00000,-0.01211,2000.00000
1890.00000,10.00000,110.00000,0.03220,2000.00000
1910.00000,10.00000,110.00000,-0.00295,2000.00000
1930.00000,10.00000,110.00000,-0.08978,2000.00000
1950.00000,10.00000,110.00000,-0.16359,2000.00000
1970.00000,10.00000,110.00000,-0.17345,2000.00000
1990.00000,10.00000,110.00000,-0.10975,2000.00000
10.00000,10.00000,130.00000,-0.10410,2000.00000
30.00000,10.00000,130.00000,-0.16477,2000.00000
50.00000,10.00000,130.00000,-0.15340,2000.00000
70.00000,10.00000,130.00000,-0.07561,2000.00000
90.00000,10.00000,130.00000,0.01953,2000.00000
110.00000,10.00000,130.00000,0.06411,2000.00000
130.00000,10.00000,130.00000,0.02626,2000.00000
150.00000,10.00000,130.00000,-0.05342,2000.00000
170.00000,10.00000,130.00000,-0.09499,2000.00000
190.00000,10.00000,130.00000,-0.06274,2000.00000
210.00000,10.00000,130.00000,-0.00751,2000.00000
230.00000,10.00000,130.00000,-0.00868,2000.00000
250.00000,10.00000,130.00000,-0.08048,2000.00000
270.00000,10.00000,130.00000,-0.15811,2000.00000
290.00000,10.00000,130.00000,-0.17455,2000.00000
310.00000,10.00000,130.00000,-0.12420,2000.00000
330.00000,10.00000,130.00000,-0.04867,2000.00000
350.00000,10.00000,130.00000,0.01022,2000.00000
370.00000,10.00000,130.00000,0.03361,2000.00000